 vasp.6.4.1 05Apr23 (build Jan 13 2025 16:05:33) complex                        
  
 executed on             LinuxIFC date 2025.11.21  10:46:42
 running   96 mpi-ranks, on    4 nodes
 distrk:  each k-point on   96 cores,    1 groups
 distr:  one band on NCORE=  24 cores,    4 groups


--------------------------------------------------------------------------------------------------------


 INCAR:
   NCORE = 24
   SYSTEM = CH3
   PREC = HIGH
   IBRION = 2
   NSW = 100
   ISPIN = 2
   LHYPERFINE = .TRUE.
   NGYROMAG = 10.707746 42.577478518

 POTCAR:    PAW_PBE C 08Apr2002                   
 POTCAR:    PAW_PBE H 15Jun2001                   
 -----------------------------------------------------------------------------
|                                                                             |
|           W    W    AA    RRRRR   N    N  II  N    N   GGGG   !!!           |
|           W    W   A  A   R    R  NN   N  II  NN   N  G    G  !!!           |
|           W    W  A    A  R    R  N N  N  II  N N  N  G       !!!           |
|           W WW W  AAAAAA  RRRRR   N  N N  II  N  N N  G  GGG   !            |
|           WW  WW  A    A  R   R   N   NN  II  N   NN  G    G                |
|           W    W  A    A  R    R  N    N  II  N    N   GGGG   !!!           |
|                                                                             |
|     You use a magnetic or noncollinear calculation, but did not specify     |
|     the initial magnetic moment with the MAGMOM tag. Note that a            |
|     default of 1 will be used for all atoms. This ferromagnetic setup       |
|     may break the symmetry of the crystal, in particular it may rule        |
|     out finding an antiferromagnetic solution. Thence, we recommend         |
|     setting the initial magnetic moment manually or verifying carefully     |
|     that this magnetic setup is desired.                                    |
|                                                                             |
 -----------------------------------------------------------------------------

 -----------------------------------------------------------------------------
|                                                                             |
|           W    W    AA    RRRRR   N    N  II  N    N   GGGG   !!!           |
|           W    W   A  A   R    R  NN   N  II  NN   N  G    G  !!!           |
|           W    W  A    A  R    R  N N  N  II  N N  N  G       !!!           |
|           W WW W  AAAAAA  RRRRR   N  N N  II  N  N N  G  GGG   !            |
|           WW  WW  A    A  R   R   N   NN  II  N   NN  G    G                |
|           W    W  A    A  R    R  N    N  II  N    N   GGGG   !!!           |
|                                                                             |
|     For optimal performance we recommend to set                             |
|       NCORE = 2 up to number-of-cores-per-socket                            |
|     NCORE specifies how many cores store one orbital (NPAR=cpu/NCORE).      |
|     This setting can greatly improve the performance of VASP for DFT.       |
|     The default, NCORE=1 might be grossly inefficient on modern             |
|     multi-core architectures or massively parallel machines. Do your        |
|     own testing! More info at https://www.vasp.at/wiki/index.php/NCORE      |
|     Unfortunately you need to use the default for GW and RPA                |
|     calculations (for HF NCORE is supported but not extensively tested      |
|     yet).                                                                   |
|                                                                             |
 -----------------------------------------------------------------------------

 POTCAR:    PAW_PBE C 08Apr2002                   
   SHA256 =  253f7b50bb8d59471dbedb8285d89021f4a42ed1a2c5d38a03a736e69125dd95 C/POTCAR              
   COPYR  = (c) Copyright 08Apr2002 Georg Kresse                                                    
   COPYR  = This file is part of the software VASP. Any use, copying, and all other rights are regul
   COPYR  = If you do not have a valid VASP license, you may not use, copy or distribute this file. 
   VRHFIN =C: s2p2                                                                                  
   LEXCH  = PE                                                                                      
   EATOM  =   147.1560 eV,   10.8157 Ry                                                             
                                                                                                    
   TITEL  = PAW_PBE C 08Apr2002                                                                     
   LULTRA =        F    use ultrasoft PP ?                                                          
   IUNSCR =        1    unscreen: 0-lin 1-nonlin 2-no                                               
   RPACOR =    1.200    partial core radius                                                         
   POMASS =   12.011; ZVAL   =    4.000    mass and valenz                                          
   RCORE  =    1.500    outmost cutoff radius                                                       
   RWIGS  =    1.630; RWIGS  =    0.863    wigner-seitz radius (au A)                               
   ENMAX  =  400.000; ENMIN  =  300.000 eV                                                          
   ICORE  =        2    local potential                                                             
   LCOR   =        T    correct aug charges                                                         
   LPAW   =        T    paw PP                                                                      
   EAUG   =  644.873                                                                                
   DEXC   =    0.000                                                                                
   RMAX   =    1.529    core radius for proj-oper                                                   
   RAUG   =    1.300    factor for augmentation sphere                                              
   RDEP   =    1.501    radius for radial grids                                                     
   RDEPT  =    1.300    core radius for aug-charge                                                  
                                                                                                    
   Atomic configuration                                                                             
    4 entries                                                                                       
     n  l   j            E        occ.                                                              
     1  0  0.50      -273.3789   2.0000                                                             
     2  0  0.50       -13.7508   2.0000                                                             
     2  1  0.50        -5.2854   2.0000                                                             
     3  2  1.50        -5.4423   0.0000                                                             
   Description                                                                                      
     l       E           TYP  RCUT    TYP  RCUT                                                     
     0    -13.7508458     23  1.200                                                                 
     0     -8.2022199     23  1.200                                                                 
     1     -5.2854383     23  1.500                                                                 
     1     34.0145650     23  1.500                                                                 
     2     -5.4423304      7  1.500                                                                 
  local pseudopotential read in
  partial core-charges read in
  partial kinetic energy density read in
  atomic valenz-charges read in
  non local Contribution for L=           0  read in
    real space projection operators read in
  non local Contribution for L=           0  read in
    real space projection operators read in
  non local Contribution for L=           1  read in
    real space projection operators read in
  non local Contribution for L=           1  read in
    real space projection operators read in
    PAW grid and wavefunctions read in
 
   number of l-projection  operators is LMAX  =           4
   number of lm-projection operators is LMMAX =           8
 
 POTCAR:    PAW_PBE H 15Jun2001                   
   SHA256 =  030f79b5d3ab3cf0e668861823c8fb652ff669f3e15e46930bd03bfd63a607b6 H/POTCAR              
   COPYR  = (c) Copyright 15Jun2001 Georg Kresse                                                    
   COPYR  = This file is part of the software VASP. Any use, copying, and all other rights are regul
   COPYR  = If you do not have a valid VASP license, you may not use, copy or distribute this file. 
   VRHFIN =H: ultrasoft test                                                                        
   LEXCH  = PE                                                                                      
   EATOM  =    12.4884 eV,    0.9179 Ry                                                             
                                                                                                    
   TITEL  = PAW_PBE H 15Jun2001                                                                     
   LULTRA =        F    use ultrasoft PP ?                                                          
   IUNSCR =        0    unscreen: 0-lin 1-nonlin 2-no                                               
   RPACOR =    0.000    partial core radius                                                         
   POMASS =    1.000; ZVAL   =    1.000    mass and valenz                                          
   RCORE  =    1.100    outmost cutoff radius                                                       
   RWIGS  =    0.700; RWIGS  =    0.370    wigner-seitz radius (au A)                               
   ENMAX  =  250.000; ENMIN  =  200.000 eV                                                          
   RCLOC  =    0.701    cutoff for local pot                                                        
   LCOR   =        T    correct aug charges                                                         
   LPAW   =        T    paw PP                                                                      
   EAUG   =  400.000                                                                                
   RMAX   =    1.123    core radius for proj-oper                                                   
   RAUG   =    1.200    factor for augmentation sphere                                              
   RDEP   =    1.112    radius for radial grids                                                     
   RDEPT  =    0.926    core radius for aug-charge                                                  
                                                                                                    
   Atomic configuration                                                                             
    2 entries                                                                                       
     n  l   j            E        occ.                                                              
     1  0  0.50        -6.4927   1.0000                                                             
     2  1  0.50        -3.4015   0.0000                                                             
   Description                                                                                      
     l       E           TYP  RCUT    TYP  RCUT                                                     
     0     -6.4927494     23  1.100                                                                 
     0      6.8029130     23  1.100                                                                 
     1     -4.0817478     23  1.100                                                                 
  local pseudopotential read in
  atomic valenz-charges read in
  non local Contribution for L=           0  read in
    real space projection operators read in
  non local Contribution for L=           0  read in
    real space projection operators read in
  non local Contribution for L=           1  read in
    real space projection operators read in
    PAW grid and wavefunctions read in
 
   number of l-projection  operators is LMAX  =           3
   number of lm-projection operators is LMMAX =           5
 
  PAW_PBE C 08Apr2002                   :
 energy of atom  1       EATOM= -147.1560
 kinetic energy error for atom=    0.0076 (will be added to EATOM!!)
  PAW_PBE H 15Jun2001                   :
 energy of atom  2       EATOM=  -12.4884
 kinetic energy error for atom=    0.0020 (will be added to EATOM!!)
 
 
 POSCAR: CH3 molecule
  positions in direct lattice
  velocities in cartesian coordinates
 exchange correlation table for  LEXCH =        8
   RHO(1)=    0.500       N(1)  =     2000
   RHO(2)=  100.500       N(2)  =     4000
 


--------------------------------------------------------------------------------------------------------


 ion  position               nearest neighbor table
   1  0.541  0.503  0.355-   2 1.09   4 1.09   3 1.09
   2  0.491  0.598  0.374-   1 1.09
   3  0.650  0.499  0.358-   1 1.09
   4  0.484  0.412  0.339-   1 1.09
 
  LATTYP: Found a simple cubic cell.
 ALAT       =    10.0000000000
  
  Lattice vectors:
  
 A1 = (  10.0000000000,   0.0000000000,   0.0000000000)
 A2 = (   0.0000000000,  10.0000000000,   0.0000000000)
 A3 = (   0.0000000000,   0.0000000000,  10.0000000000)


Analysis of symmetry for initial positions (statically):
=====================================================================
 Subroutine PRICEL returns:
 Original cell was already a primitive cell.
 

 Routine SETGRP: Setting up the symmetry group for a 
 simple cubic supercell.


 Subroutine GETGRP returns: Found  1 space group operations
 (whereof  1 operations were pure point group operations)
 out of a pool of 48 trial point group operations.


The static configuration has the point symmetry C_1 .


Analysis of symmetry for dynamics (positions and initial velocities):
=====================================================================
 Subroutine PRICEL returns:
 Original cell was already a primitive cell.
 

 Routine SETGRP: Setting up the symmetry group for a 
 simple cubic supercell.


 Subroutine GETGRP returns: Found  1 space group operations
 (whereof  1 operations were pure point group operations)
 out of a pool of 48 trial point group operations.


The dynamic configuration has the point symmetry C_1 .


Analysis of structural, dynamic, and magnetic symmetry:
=====================================================================
 Subroutine PRICEL returns:
 Original cell was already a primitive cell.
 

 Routine SETGRP: Setting up the symmetry group for a 
 simple cubic supercell.


 Subroutine GETGRP returns: Found  1 space group operations
 (whereof  1 operations were pure point group operations)
 out of a pool of 48 trial point group operations.


The overall configuration has the point symmetry C_1 .


 Subroutine INISYM returns: Found  1 space group operations
 (whereof  1 operations are pure point group operations),
 and found     1 'primitive' translations


----------------------------------------------------------------------------------------

                                     Primitive cell                                     

  volume of cell :    1000.0000

  direct lattice vectors                    reciprocal lattice vectors
    10.000000000  0.000000000  0.000000000     0.100000000  0.000000000  0.000000000
     0.000000000 10.000000000  0.000000000     0.000000000  0.100000000  0.000000000
     0.000000000  0.000000000 10.000000000     0.000000000  0.000000000  0.100000000

  length of vectors
    10.000000000 10.000000000 10.000000000     0.100000000  0.100000000  0.100000000

  position of ions in fractional coordinates (direct lattice)
     0.541440000  0.503130000  0.355360000
     0.491270000  0.597660000  0.373850000
     0.650200000  0.498560000  0.357530000
     0.483540000  0.412340000  0.339320000

  ion indices of the primitive-cell ions
   primitive index   ion index
                 1           1
                 2           2
                 3           3
                 4           4

----------------------------------------------------------------------------------------

 
 
 KPOINTS: test case                               

Automatic generation of k-mesh.
 Grid dimensions read from file:
 generate k-points for:    1    1    1

 Generating k-lattice:

  Cartesian coordinates                     Fractional coordinates (reciprocal lattice)
     0.100000000  0.000000000  0.000000000     1.000000000  0.000000000  0.000000000
     0.000000000  0.100000000  0.000000000     0.000000000  1.000000000  0.000000000
     0.000000000  0.000000000  0.100000000     0.000000000  0.000000000  1.000000000

  Length of vectors
     0.100000000  0.100000000  0.100000000

  Shift w.r.t. Gamma in fractional coordinates (k-lattice)
     0.000000000  0.000000000  0.000000000

 
 Subroutine IBZKPT returns following result:
 ===========================================
 
 Found      1 irreducible k-points:
 
 Following reciprocal coordinates:
            Coordinates               Weight
  0.000000  0.000000  0.000000      1.000000
 
 Following cartesian coordinates:
            Coordinates               Weight
  0.000000  0.000000  0.000000      1.000000
 


--------------------------------------------------------------------------------------------------------




 Dimension of arrays:
   k-points           NKPTS =      1   k-points in BZ     NKDIM =      1   number of bands    NBANDS=     12
   number of dos      NEDOS =    301   number of ions     NIONS =      4
   non local maximal  LDIM  =      4   non local SUM 2l+1 LMDIM =      8
   total plane-waves  NPLWV = 512000
   max r-space proj   IRMAX =      1   max aug-charges    IRDMAX=   2272
   dimension x,y,z NGX =    80 NGY =   80 NGZ =   80
   dimension x,y,z NGXF=   112 NGYF=  112 NGZF=  112
   support grid    NGXF=   112 NGYF=  112 NGZF=  112
   ions per type =               1   3
   NGX,Y,Z   is equivalent  to a cutoff of  13.30, 13.30, 13.30 a.u.
   NGXF,Y,Z  is equivalent  to a cutoff of  18.62, 18.62, 18.62 a.u.

 SYSTEM =  CH3                                     
 POSCAR =  CH3 molecule                            

 Startparameter for this run:
   NWRITE =      2    write-flag & timer
   PREC   = high      normal or accurate (medium, high low for compatibility)
   ISTART =      1    job   : 0-new  1-cont  2-samecut
   ICHARG =      0    charge: 1-file 2-atom 10-const
   ISPIN  =      2    spin polarized calculation?
   LNONCOLLINEAR =      F non collinear calculations
   LSORBIT =      F    spin-orbit coupling
   INIWAV =      1    electr: 0-lowe 1-rand  2-diag
   LASPH  =      F    aspherical Exc in radial PAW
 Electronic Relaxation 1
   ENCUT  =  500.0 eV  36.75 Ry    6.06 a.u.  18.23 18.23 18.23*2*pi/ulx,y,z
   ENINI  =  500.0     initial cutoff
   ENAUG  =  644.9 eV  augmentation charge cutoff
   NELM   =     60;   NELMIN=  2; NELMDL=  0     # of ELM steps 
   EDIFF  = 0.1E-03   stopping-criterion for ELM
   LREAL  =      F    real-space projection
   NLSPLINE    = F    spline interpolate recip. space projectors
   LCOMPAT=      F    compatible to vasp.4.4
   GGA_COMPAT  = T    GGA compatible to vasp.4.4-vasp.4.6
   LMAXPAW     = -100 max onsite density
   LMAXMIX     =    2 max onsite mixed and CHGCAR
   VOSKOWN=      0    Vosko Wilk Nusair interpolation
   ROPT   =    0.00000   0.00000
 Ionic relaxation
   EDIFFG = 0.1E-02   stopping-criterion for IOM
   NSW    =    100    number of steps for IOM
   NBLOCK =      1;   KBLOCK =    100    inner block; outer block 
   IBRION =      2    ionic relax: 0-MD 1-quasi-New 2-CG
   NFREE  =      1    steps in history (QN), initial steepest desc. (CG)
   ISIF   =      2    stress and relaxation
   IWAVPR =     11    prediction:  0-non 1-charg 2-wave 3-comb
   ISYM   =      2    0-nonsym 1-usesym 2-fastsym
   LCORR  =      T    Harris-Foulkes like correction to forces

   POTIM  = 0.5000    time-step for ionic-motion
   TEIN   =    0.0    initial temperature
   TEBEG  =    0.0;   TEEND  =   0.0 temperature during run
   SMASS  =  -3.00    Nose mass-parameter (am)
   estimated Nose-frequenzy (Omega)   =  0.10E-29 period in steps = 0.13E+47 mass=  -0.229E-26a.u.
   SCALEE = 1.0000    scale energy and forces
   NPACO  =    256;   APACO  = 10.0  distance and # of slots for P.C.
   PSTRESS=    0.0 pullay stress

  Mass of Ions in am
   POMASS =  12.01  1.00
  Ionic Valenz
   ZVAL   =   4.00  1.00
  Atomic Wigner-Seitz radii
   RWIGS  =  -1.00 -1.00
  virtual crystal weights 
   VCA    =   1.00  1.00
   NELECT =       7.0000    total number of electrons
   NUPDOWN=      -1.0000    fix difference up-down

 DOS related values:
   EMIN   =  10.00;   EMAX   =-10.00  energy-range for DOS
   EFERMI =   0.00;   METHOD = LEGACY      
   ISMEAR =     1;   SIGMA  =   0.20  broadening in eV -4-tet -1-fermi 0-gaus

 Electronic relaxation 2 (details)
   IALGO  =     38    algorithm
   LDIAG  =      T    sub-space diagonalisation (order eigenvalues)
   LSUBROT=      F    optimize rotation matrix (better conditioning)
   TURBO    =      0    0=normal 1=particle mesh
   IRESTART =      0    0=no restart 2=restart with 2 vectors
   NREBOOT  =      0    no. of reboots
   NMIN     =      0    reboot dimension
   EREF     =   0.00    reference energy to select bands
   IMIX   =      4    mixing-type and parameters
     AMIX     =   0.40;   BMIX     =  1.00
     AMIX_MAG =   1.60;   BMIX_MAG =  1.00
     AMIN     =   0.10
     WC   =   100.;   INIMIX=   1;  MIXPRE=   1;  MAXMIX= -45

 Intra band minimization:
   WEIMIN = 0.0010     energy-eigenvalue tresh-hold
   EBREAK =  0.21E-05  absolut break condition
   DEPER  =   0.30     relativ break condition  

   TIME   =   0.40     timestep for ELM

  volume/ion in A,a.u.               =     250.00      1687.08
  Fermi-wavevector in a.u.,A,eV,Ry     =   0.313166  0.591797  1.334361  0.098073
  Thomas-Fermi vector in A             =   1.193276
 
 Write flags
   LWAVE        =      T    write WAVECAR
   LDOWNSAMPLE  =      F    k-point downsampling of WAVECAR
   LCHARG       =      T    write CHGCAR
   LVTOT        =      F    write LOCPOT, total local potential
   LVHAR        =      F    write LOCPOT, Hartree potential only
   LELF         =      F    write electronic localiz. function (ELF)
   LORBIT       =      0    0 simple, 1 ext, 2 COOP (PROOUT), +10 PAW based schemes


 Dipole corrections
   LMONO  =      F    monopole corrections only (constant potential shift)
   LDIPOL =      F    correct potential (dipole corrections)
   IDIPOL =      0    1-x, 2-y, 3-z, 4-all directions 
   EPSILON=  1.0000000 bulk dielectric constant

 Exchange correlation treatment:
   GGA     =    --    GGA type
   LEXCH   =     8    internal setting for exchange type
   LIBXC   =     F    Libxc                    
   VOSKOWN =     0    Vosko Wilk Nusair interpolation
   LHFCALC =     F    Hartree Fock is set to
   LHFONE  =     F    Hartree Fock one center treatment
   AEXX    =    0.0000 exact exchange contribution

 Linear response parameters
   LEPSILON=     F    determine dielectric tensor
   LRPA    =     F    only Hartree local field effects (RPA)
   LNABLA  =     F    use nabla operator in PAW spheres
   LVEL    =     F    velocity operator in full k-point grid
   CSHIFT  =0.1000    complex shift for real part using Kramers Kronig
   OMEGAMAX=  -1.0    maximum frequency
   DEG_THRESHOLD= 0.2000000E-02 threshold for treating states as degnerate
   RTIME   =   -0.100 relaxation time in fs
  (WPLASMAI=    0.000 imaginary part of plasma frequency in eV, 0.658/RTIME)
   DFIELD  = 0.0000000 0.0000000 0.0000000 field for delta impulse in time
 
  Optional k-point grid parameters
   LKPOINTS_OPT  =     F    use optional k-point grid
   KPOINTS_OPT_MODE=     1    mode for optional k-point grid
 
 Orbital magnetization related:
   ORBITALMAG=     F  switch on orbital magnetization
   LCHIMAG   =     F  perturbation theory with respect to B field
   DQ        =  0.001000  dq finite difference perturbation B field
   LLRAUG    =     F  two centre corrections for induced B field
   LBONE     =     F  B-component reconstruction in AE one-centre
   LVGVCALC  =     T  calculate vGv susceptibility
   LVGVAPPL  =     F  apply vGv susceptibility instead of pGv for G=0

 Random number generation:
   RANDOM_GENERATOR = DEFAULT
   PCG_SEED         = not used


--------------------------------------------------------------------------------------------------------


 conjugate gradient relaxation of ions
 charge density and potential will be updated during run
 spin polarized calculation
 Variant of blocked Davidson
 Davidson routine will perform the subspace rotation
 perform sub-space diagonalisation
    after iterative eigenvector-optimisation
 modified Broyden-mixing scheme, WC =      100.0
 initial mixing is a Kerker type mixing with AMIX =  0.4000 and BMIX =      1.0000
 Hartree-type preconditioning will be used
 using additional bands            8
 reciprocal scheme for non local part
 use partial core corrections
 calculate Harris-corrections to forces 
   (improved forces if not selfconsistent)
 use gradient corrections 
 use of overlap-Matrix (Vanderbilt PP)
 Methfessel and Paxton  Order N= 1 SIGMA  =   0.20


--------------------------------------------------------------------------------------------------------


  energy-cutoff  :      500.00
  volume of cell :     1000.00
      direct lattice vectors                 reciprocal lattice vectors
    10.000000000  0.000000000  0.000000000     0.100000000  0.000000000  0.000000000
     0.000000000 10.000000000  0.000000000     0.000000000  0.100000000  0.000000000
     0.000000000  0.000000000 10.000000000     0.000000000  0.000000000  0.100000000

  length of vectors
    10.000000000 10.000000000 10.000000000     0.100000000  0.100000000  0.100000000


 
 old parameters found on file WAVECAR:
  energy-cutoff  :      400.00
  volume of cell :     1000.00
      direct lattice vectors                 reciprocal lattice vectors
    10.000000000  0.000000000  0.000000000     0.100000000  0.000000000  0.000000000
     0.000000000 10.000000000  0.000000000     0.000000000  0.100000000  0.000000000
     0.000000000  0.000000000 10.000000000     0.000000000  0.000000000  0.100000000

  length of vectors

 
 k-points in units of 2pi/SCALE and weight: test case                               
   0.00000000  0.00000000  0.00000000       1.000
 
 k-points in reciprocal lattice and weights: test case                               
   0.00000000  0.00000000  0.00000000       1.000
 
 position of ions in fractional coordinates (direct lattice) 
   0.54144000  0.50313000  0.35536000
   0.49127000  0.59766000  0.37385000
   0.65020000  0.49856000  0.35753000
   0.48354000  0.41234000  0.33932000
 
 position of ions in cartesian coordinates  (Angst):
   5.41440000  5.03130000  3.55360000
   4.91270000  5.97660000  3.73850000
   6.50200000  4.98560000  3.57530000
   4.83540000  4.12340000  3.39320000
 


--------------------------------------------------------------------------------------------------------


 k-point   1 :   0.0000 0.0000 0.0000  plane waves:   25413

 maximum and minimum number of plane-waves per node :      1068     1053

 maximum number of plane-waves:     25413
 maximum index in each direction: 
   IXMAX=   18   IYMAX=   18   IZMAX=   18
   IXMIN=  -18   IYMIN=  -18   IZMIN=  -18


 parallel 3D FFT for wavefunctions:
    minimum data exchange during FFTs selected (reduces bandwidth)
 parallel 3D FFT for charge:
    minimum data exchange during FFTs selected (reduces bandwidth)


 total amount of memory used by VASP MPI-rank0    35981. kBytes
=======================================================================

   base      :      30000. kBytes
   nonl-proj :        202. kBytes
   fftplans  :       1578. kBytes
   grid      :       4093. kBytes
   one-center:          6. kBytes
   wavefun   :        102. kBytes
 
     INWAV:  cpu time      0.0320: real time      0.0943
 Broyden mixing: mesh for mixing (old mesh)
   NGX = 37   NGY = 37   NGZ = 37
  (NGX  =112   NGY  =112   NGZ  =112)
  gives a total of  50653 points

 charge density for first step will be calculated from the start-wavefunctions


--------------------------------------------------------------------------------------------------------


 Maximum index for augmentation-charges            0 (set IRDMAX)


--------------------------------------------------------------------------------------------------------


 initial charge from wavefunction
 First call to EWALD:  gamma=   0.177
 Maximum number of real-space cells 3x 3x 3
 Maximum number of reciprocal cells 3x 3x 3

    FEWALD:  cpu time      0.0015: real time      0.0015


--------------------------------------- Ionic step        1  -------------------------------------------




--------------------------------------- Iteration      1(   1)  ---------------------------------------


    POTLOK:  cpu time      0.1053: real time      0.1214
    SETDIJ:  cpu time      0.8897: real time      0.8954
     EDDAV:  cpu time      0.1160: real time      0.1799
       DOS:  cpu time      0.0007: real time      0.0115
    CHARGE:  cpu time      0.0306: real time      0.0308
    MIXING:  cpu time      0.0026: real time      0.0034
    --------------------------------------------
      LOOP:  cpu time      1.1448: real time      1.2425

 eigenvalue-minimisations  :    48
 total energy-change (2. order) :-0.1818814E+02  (-0.5675044E-01)
 number of electron       6.9999992 magnetization      -0.9999998
 augmentation part        0.1519031 magnetization      -0.0449145

 Broyden mixing:
  rms(total) = 0.18693E-01    rms(broyden)= 0.18473E-01
  rms(prec ) = 0.18863E-01
  weight for this iteration     100.00

 Free energy of the ion-electron system (eV)
  ---------------------------------------------------
  alpha Z        PSCENC =         0.19491627
  Ewald energy   TEWEN  =        82.43381462
  -Hartree energ DENC   =      -228.47680117
  -exchange      EXHF   =         0.00000000
  -V(xc)+E(xc)   XCENC  =        21.45425916
  PAW double counting   =       377.92798220     -378.67160221
  entropy T*S    EENTRO =         0.00579791
  eigenvalues    EBANDS =       -77.66421377
  atomic energy  EATOM  =       184.60771130
  Solvation  Ediel_sol  =         0.00000000
  ---------------------------------------------------
  free energy    TOTEN  =       -18.18813569 eV

  energy without entropy =      -18.19393359  energy(sigma->0) =      -18.19006832


--------------------------------------------------------------------------------------------------------




--------------------------------------- Iteration      1(   2)  ---------------------------------------


    POTLOK:  cpu time      0.1155: real time      0.1164
    SETDIJ:  cpu time      0.8897: real time      0.8926
     EDDAV:  cpu time      0.0354: real time      0.0356
       DOS:  cpu time      0.0005: real time      0.0005
    CHARGE:  cpu time      0.0160: real time      0.0161
    MIXING:  cpu time      0.0009: real time      0.0009
    --------------------------------------------
      LOOP:  cpu time      1.0580: real time      1.0622

 eigenvalue-minimisations  :    56
 total energy-change (2. order) : 0.2316554E-03  (-0.2445993E-04)
 number of electron       6.9999992 magnetization      -0.9999998
 augmentation part        0.1520591 magnetization      -0.0449322

 Broyden mixing:
  rms(total) = 0.11580E-01    rms(broyden)= 0.11563E-01
  rms(prec ) = 0.11810E-01
  weight for this iteration     100.00

 eigenvalues of (default mixing * dielectric matrix)
  average eigenvalue GAMMA=   0.9450
  0.9450

 Free energy of the ion-electron system (eV)
  ---------------------------------------------------
  alpha Z        PSCENC =         0.19491627
  Ewald energy   TEWEN  =        82.43381462
  -Hartree energ DENC   =      -228.47529930
  -exchange      EXHF   =         0.00000000
  -V(xc)+E(xc)   XCENC  =        21.45535577
  PAW double counting   =       376.26637278     -377.01344319
  entropy T*S    EENTRO =         0.00579791
  eigenvalues    EBANDS =       -77.66313020
  atomic energy  EATOM  =       184.60771130
  Solvation  Ediel_sol  =         0.00000000
  ---------------------------------------------------
  free energy    TOTEN  =       -18.18790403 eV

  energy without entropy =      -18.19370194  energy(sigma->0) =      -18.18983667


--------------------------------------------------------------------------------------------------------




--------------------------------------- Iteration      1(   3)  ---------------------------------------


    POTLOK:  cpu time      0.0836: real time      0.0842
    SETDIJ:  cpu time      0.8891: real time      0.8910
     EDDAV:  cpu time      0.0317: real time      0.0320
       DOS:  cpu time      0.0004: real time      0.0004
    CHARGE:  cpu time      0.0159: real time      0.0160
    MIXING:  cpu time      0.0012: real time      0.0012
    --------------------------------------------
      LOOP:  cpu time      1.0220: real time      1.0248

 eigenvalue-minimisations  :    48
 total energy-change (2. order) :-0.2884613E-03  (-0.1654541E-04)
 number of electron       6.9999992 magnetization      -0.9999998
 augmentation part        0.1520352 magnetization      -0.0449305

 Broyden mixing:
  rms(total) = 0.68225E-02    rms(broyden)= 0.68213E-02
  rms(prec ) = 0.68848E-02
  weight for this iteration     100.00

 eigenvalues of (default mixing * dielectric matrix)
  average eigenvalue GAMMA=   1.4811
  2.3841  0.5781

 Free energy of the ion-electron system (eV)
  ---------------------------------------------------
  alpha Z        PSCENC =         0.19491627
  Ewald energy   TEWEN  =        82.43381462
  -Hartree energ DENC   =      -228.48840612
  -exchange      EXHF   =         0.00000000
  -V(xc)+E(xc)   XCENC  =        21.45598113
  PAW double counting   =       374.96233246     -375.71381330
  entropy T*S    EENTRO =         0.00579791
  eigenvalues    EBANDS =       -77.64652677
  atomic energy  EATOM  =       184.60771130
  Solvation  Ediel_sol  =         0.00000000
  ---------------------------------------------------
  free energy    TOTEN  =       -18.18819249 eV

  energy without entropy =      -18.19399040  energy(sigma->0) =      -18.19012513


--------------------------------------------------------------------------------------------------------




--------------------------------------- Iteration      1(   4)  ---------------------------------------


    POTLOK:  cpu time      0.0829: real time      0.0834
    SETDIJ:  cpu time      0.8891: real time      0.8910
     EDDAV:  cpu time      0.0372: real time      0.0374
       DOS:  cpu time      0.0005: real time      0.0005
    CHARGE:  cpu time      0.0157: real time      0.0158
    MIXING:  cpu time      0.0015: real time      0.0015
    --------------------------------------------
      LOOP:  cpu time      1.0268: real time      1.0296

 eigenvalue-minimisations  :    48
 total energy-change (2. order) :-0.4437026E-03  (-0.5055093E-05)
 number of electron       6.9999992 magnetization      -0.9999998
 augmentation part        0.1520258 magnetization      -0.0449200

 Broyden mixing:
  rms(total) = 0.77639E-03    rms(broyden)= 0.77568E-03
  rms(prec ) = 0.85192E-03
  weight for this iteration     100.00

 eigenvalues of (default mixing * dielectric matrix)
  average eigenvalue GAMMA=   1.2933
  2.5637  0.6985  0.6176

 Free energy of the ion-electron system (eV)
  ---------------------------------------------------
  alpha Z        PSCENC =         0.19491627
  Ewald energy   TEWEN  =        82.43381462
  -Hartree energ DENC   =      -228.49168882
  -exchange      EXHF   =         0.00000000
  -V(xc)+E(xc)   XCENC  =        21.45631944
  PAW double counting   =       373.99120141     -374.74499560
  entropy T*S    EENTRO =         0.00579791
  eigenvalues    EBANDS =       -77.64171273
  atomic energy  EATOM  =       184.60771130
  Solvation  Ediel_sol  =         0.00000000
  ---------------------------------------------------
  free energy    TOTEN  =       -18.18863620 eV

  energy without entropy =      -18.19443410  energy(sigma->0) =      -18.19056883


--------------------------------------------------------------------------------------------------------




--------------------------------------- Iteration      1(   5)  ---------------------------------------


    POTLOK:  cpu time      0.0825: real time      0.0830
    SETDIJ:  cpu time      0.8889: real time      0.8909
     EDDAV:  cpu time      0.0358: real time      0.0360
       DOS:  cpu time      0.0006: real time      0.0006
    --------------------------------------------
      LOOP:  cpu time      1.0078: real time      1.0104

 eigenvalue-minimisations  :    48
 total energy-change (2. order) :-0.2228048E-04  (-0.2294828E-06)
 number of electron       6.9999992 magnetization      -0.9999998
 augmentation part        0.1520258 magnetization      -0.0449200

 Free energy of the ion-electron system (eV)
  ---------------------------------------------------
  alpha Z        PSCENC =         0.19491627
  Ewald energy   TEWEN  =        82.43381462
  -Hartree energ DENC   =      -228.48687889
  -exchange      EXHF   =         0.00000000
  -V(xc)+E(xc)   XCENC  =        21.45602038
  PAW double counting   =       373.92803076     -374.68173199
  entropy T*S    EENTRO =         0.00579791
  eigenvalues    EBANDS =       -77.64633884
  atomic energy  EATOM  =       184.60771130
  Solvation  Ediel_sol  =         0.00000000
  ---------------------------------------------------
  free energy    TOTEN  =       -18.18865848 eV

  energy without entropy =      -18.19445638  energy(sigma->0) =      -18.19059111


--------------------------------------------------------------------------------------------------------




 average (electrostatic) potential at core
  the test charge radii are     0.6991  0.5201
  (the norm of the test charge is              1.0000)
       1 -58.3984       2 -42.0428       3 -42.0131       4 -42.0253
 
 
 
 E-fermi :  -5.1709     XC(G=0):  -0.6535     alpha+bet : -0.1831

 Fermi energy:        -5.1709488919

 spin component 1

 k-point     1 :       0.0000    0.0000    0.0000
  band No.  band energies     occupation 
      1     -15.7716      1.00000
      2      -9.8461      1.00000
      3      -9.8133      1.00000
      4      -2.6730     -0.00000
      5      -0.3653     -0.00000
      6       1.0742      0.00000
      7       1.0849      0.00000
      8       1.0994      0.00000
      9       1.2314      0.00000
     10       1.4481      0.00000
     11       1.4752      0.00000
     12       2.0879      0.00000
 Fermi energy:        -5.1709488919

 spin component 2

 k-point     1 :       0.0000    0.0000    0.0000
  band No.  band energies     occupation 
      1     -16.7324      1.00000
      2     -10.0880      1.00000
      3     -10.0556      1.00000
      4      -5.3393      1.00000
      5      -0.5938     -0.00000
      6       0.9243      0.00000
      7       0.9379      0.00000
      8       0.9467      0.00000
      9       1.0495      0.00000
     10       1.1113      0.00000
     11       1.1887      0.00000
     12       1.9793      0.00000


--------------------------------------------------------------------------------------------------------


 soft charge-density along one line, spin component           1
         0         1         2         3         4         5         6         7         8         9
 total charge-density along one line
 
 soft charge-density along one line, spin component           2
         0         1         2         3         4         5         6         7         8         9
 total charge-density along one line
 
 pseudopotential strength for first ion, spin component:           1
 10.136  13.477  -0.000   0.001  -0.000   0.001  -0.004   0.000
 13.477  17.918  -0.000   0.001  -0.000   0.001  -0.005   0.000
 -0.000  -0.000  -4.365  -0.020   0.000   8.562   0.034  -0.000
  0.001   0.001  -0.020  -4.262  -0.001   0.034   8.386   0.002
 -0.000  -0.000   0.000  -0.001  -4.368  -0.000   0.002   8.568
  0.001   0.001   8.562   0.034  -0.000 -18.933  -0.058   0.001
 -0.004  -0.005   0.034   8.386   0.002  -0.058 -18.632  -0.004
  0.000   0.000  -0.000   0.002   8.568   0.001  -0.004 -18.944
 pseudopotential strength for first ion, spin component:           2
 10.311  13.715   0.000  -0.000   0.000  -0.000   0.001   0.000
 13.715  18.241   0.000  -0.000   0.000  -0.000   0.001   0.000
  0.000   0.000  -4.373   0.010  -0.000   8.543  -0.019   0.000
 -0.000  -0.000   0.010  -4.426   0.001  -0.019   8.642  -0.001
  0.000   0.000  -0.000   0.001  -4.371   0.000  -0.001   8.539
 -0.000  -0.000   8.543  -0.019   0.000 -18.827   0.036  -0.001
  0.001   0.001  -0.019   8.642  -0.001   0.036 -19.012   0.003
  0.000   0.000   0.000  -0.001   8.539  -0.001   0.003 -18.820
 total augmentation occupancy for first ion, spin component:           1
  6.502  -2.567  -0.001   0.035  -0.000   0.000   0.004   0.000
 -2.567   1.014   0.001  -0.023  -0.000  -0.000  -0.002  -0.000
 -0.001   0.001   1.639   0.124  -0.003   0.131   0.021  -0.000
  0.035  -0.023   0.124   0.997   0.008   0.021   0.024   0.001
 -0.000  -0.000  -0.003   0.008   1.658  -0.000   0.001   0.135
  0.000  -0.000   0.131   0.021  -0.000   0.011   0.002  -0.000
  0.004  -0.002   0.021   0.024   0.001   0.002   0.001   0.000
  0.000  -0.000  -0.000   0.001   0.135  -0.000   0.000   0.011
 total augmentation occupancy for first ion, spin component:           2
 -0.096   0.013  -0.001   0.003  -0.000  -0.000   0.000   0.000
  0.013   0.004  -0.001   0.008  -0.000  -0.000   0.000  -0.000
 -0.001  -0.001  -0.058   0.170  -0.002  -0.002   0.003  -0.000
  0.003   0.008   0.170  -0.942   0.012   0.003  -0.020   0.000
 -0.000  -0.000  -0.002   0.012  -0.027  -0.000   0.000  -0.001
 -0.000  -0.000  -0.002   0.003  -0.000  -0.000   0.000  -0.000
  0.000   0.000   0.003  -0.020   0.000   0.000  -0.000   0.000
  0.000  -0.000  -0.000   0.000  -0.001  -0.000   0.000  -0.000


------------------------ aborting loop because EDIFF is reached ----------------------------------------


    CHARGE:  cpu time      0.0162: real time      0.0163
    FORLOC:  cpu time      0.0013: real time      0.0013
    FORNL :  cpu time      0.0021: real time      0.0021
    STRESS:  cpu time      0.0546: real time      0.0547
    FORCOR:  cpu time      0.1667: real time      0.1672
    FORHAR:  cpu time      0.0089: real time      0.0089
    MIXING:  cpu time      0.0009: real time      0.0009
    OFIELD:  cpu time      0.0000: real time      0.0000

  FORCE on cell =-STRESS in cart. coord.  units (eV):
  Direction    XX          YY          ZZ          XY          YZ          ZX
  --------------------------------------------------------------------------------------
  Alpha Z     0.19492     0.19492     0.19492
  Ewald      57.71650    55.32352   -30.60624    -0.09737    16.17610     1.16009
  Hartree    85.81276    84.96759    57.69049    -0.01491     4.97286     0.36078
  E(xc)     -23.64747   -23.66318   -24.18016    -0.00005     0.09948     0.00727
  Local    -194.51440  -191.48304   -88.48832     0.08742   -19.18341    -1.38366
  n-local   -12.15632   -12.13446   -11.53769     0.00654    -0.11508    -0.00724
  augment     0.07293     0.07078     0.04447     0.00002     0.00498     0.00046
  Kinetic    86.38439    86.60211    96.81095    -0.03575    -1.96364    -0.14967
  Fock        0.00000     0.00000     0.00000     0.00000     0.00000     0.00000
  -------------------------------------------------------------------------------------
  Total      -0.13670    -0.12177    -0.07158    -0.05411    -0.00871    -0.01196
  in kB      -0.21901    -0.19509    -0.11468    -0.08670    -0.01395    -0.01916
  external pressure =       -0.18 kB  Pullay stress =        0.00 kB


 VOLUME and BASIS-vectors are now :
 -----------------------------------------------------------------------------
  energy-cutoff  :      500.00
  volume of cell :     1000.00
      direct lattice vectors                 reciprocal lattice vectors
    10.000000000  0.000000000  0.000000000     0.100000000  0.000000000  0.000000000
     0.000000000 10.000000000  0.000000000     0.000000000  0.100000000  0.000000000
     0.000000000  0.000000000 10.000000000     0.000000000  0.000000000  0.100000000

  length of vectors
    10.000000000 10.000000000 10.000000000     0.100000000  0.100000000  0.100000000


 FORCES acting on ions
    electron-ion (+dipol)            ewald-force                    non-local-force                 convergence-correction
 -----------------------------------------------------------------------------------------------
   0.134E+00 -.814E-01 0.198E+01   -.113E+00 0.600E-01 -.211E+01   0.491E-01 -.476E-01 0.163E+00   0.224E-02 -.145E-02 -.187E-02
   0.229E+02 -.431E+02 -.836E+01   -.256E+02 0.482E+02 0.934E+01   0.268E+01 -.506E+01 -.990E+00   0.676E-03 -.980E-03 -.409E-03
   -.494E+02 0.207E+01 -.901E+00   0.551E+02 -.232E+01 0.100E+01   -.576E+01 0.239E+00 -.115E+00   -.145E-02 -.555E-04 -.250E-03
   0.263E+02 0.412E+02 0.738E+01   -.293E+02 -.460E+02 -.823E+01   0.307E+01 0.482E+01 0.851E+00   0.979E-03 0.106E-02 0.542E-05
 -----------------------------------------------------------------------------------------------
   -.349E-01 0.577E-01 0.939E-01   -.355E-14 0.000E+00 0.178E-14   0.314E-01 -.558E-01 -.913E-01   0.244E-02 -.143E-02 -.253E-02
 
 
 POSITION                                       TOTAL-FORCE (eV/Angst)
 -----------------------------------------------------------------------------------
      5.41440      5.03130      3.55360         0.071760     -0.070579      0.028719
      4.91270      5.97660      3.73850        -0.033712      0.008738     -0.011360
      6.50200      4.98560      3.57530        -0.066045     -0.008503     -0.016711
      4.83540      4.12340      3.39320         0.027998      0.070345     -0.000648
 -----------------------------------------------------------------------------------
    total drift:                               -0.001075      0.000494      0.000040


--------------------------------------------------------------------------------------------------------



  FREE ENERGIE OF THE ION-ELECTRON SYSTEM (eV)
  ---------------------------------------------------
  free  energy   TOTEN  =       -18.18865848 eV

  energy  without entropy=      -18.19445638  energy(sigma->0) =      -18.19059111
 


--------------------------------------------------------------------------------------------------------


    POTLOK:  cpu time      0.9700: real time      0.9722

 Total magnetic moment S=     0.9999998

 Fermi contact (isotropic) hyperfine coupling parameter (MHz) 
 -------------------------------------------------------------
  ion      A_pw      A_1PS     A_1AE     A_1c      A_tot
 -------------------------------------------------------------
   1     -52.630   -53.063  -183.828    96.381  -183.395
   2      39.454    39.688    64.246     0.000    64.012
   3      39.430    39.662    64.211     0.000    63.979
   4      39.543    39.772    64.390     0.000    64.162
 -------------------------------------------------------------


 Dipolar hyperfine coupling parameters (MHz)
 ---------------------------------------------------------------------
  ion      A_xx      A_yy      A_zz      A_xy      A_xz      A_yz
 ---------------------------------------------------------------------
   1      84.083    75.746  -159.829    -0.599     3.207    45.320
   2      23.412   -20.073    -3.339    30.852     6.336    -3.308
   3     -36.920    38.097    -1.178     3.016    -0.460     7.612
   4      17.946   -14.954    -2.992   -34.018    -5.749    -2.269
 ---------------------------------------------------------------------


 Total hyperfine coupling parameters after diagonalization (MHz)
 (convention: |A_zz| > |A_xx| > |A_yy|)
 ----------------------------------------------------------------------
  ion      A_xx      A_yy      A_zz     asymmetry (A_yy - A_xx)/ A_zz 
 ----------------------------------------------------------------------
   1     -99.270   -99.231  -351.684      -0.000
   2      61.300    26.916   103.819      -0.331
   3      61.407    26.922   103.609      -0.333
   4      61.583    27.139   103.762      -0.332
 ---------------------------------------------------------------------



--------------------------------------------------------------------------------------------------------




--------------------------------------------------------------------------------------------------------


    WAVPRE:  cpu time      2.0707: real time      2.1915
    FEWALD:  cpu time      0.0003: real time      0.0003
    ORTHCH:  cpu time      0.0022: real time      0.0022
     LOOP+:  cpu time      9.4526: real time      9.6992


--------------------------------------- Ionic step        2  -------------------------------------------




--------------------------------------- Iteration      2(   1)  ---------------------------------------


    POTLOK:  cpu time      0.0812: real time      0.0821
    SETDIJ:  cpu time      0.8891: real time      0.8911
     EDDAV:  cpu time      0.0389: real time      0.0391
       DOS:  cpu time      0.0005: real time      0.0005
    CHARGE:  cpu time      0.0159: real time      0.0160
    MIXING:  cpu time      0.0011: real time      0.0011
    --------------------------------------------
      LOOP:  cpu time      1.0266: real time      1.0299

 eigenvalue-minimisations  :    60
 total energy-change (2. order) : 0.7211662E-03  (-0.8029458E-02)
 number of electron       6.9999992 magnetization      -0.9999998
 augmentation part        0.1525110 magnetization      -0.0449523

 Broyden mixing:
  rms(total) = 0.89099E-02    rms(broyden)= 0.88899E-02
  rms(prec ) = 0.10077E-01
  weight for this iteration     100.00

 Free energy of the ion-electron system (eV)
  ---------------------------------------------------
  alpha Z        PSCENC =         0.19491627
  Ewald energy   TEWEN  =        82.75412759
  -Hartree energ DENC   =      -228.65834939
  -exchange      EXHF   =         0.00000000
  -V(xc)+E(xc)   XCENC  =        21.46546846
  PAW double counting   =       373.91173408     -374.66534207
  entropy T*S    EENTRO =         0.00579791
  eigenvalues    EBANDS =       -77.80397917
  atomic energy  EATOM  =       184.60771130
  Solvation  Ediel_sol  =         0.00000000
  ---------------------------------------------------
  free energy    TOTEN  =       -18.18791503 eV

  energy without entropy =      -18.19371294  energy(sigma->0) =      -18.18984766


--------------------------------------------------------------------------------------------------------




--------------------------------------- Iteration      2(   2)  ---------------------------------------


    POTLOK:  cpu time      0.0828: real time      0.0833
    SETDIJ:  cpu time      0.9015: real time      0.9056
     EDDAV:  cpu time      0.2217: real time      0.2224
       DOS:  cpu time      0.0004: real time      0.0004
    CHARGE:  cpu time      0.0679: real time      0.0681
    MIXING:  cpu time      0.0080: real time      0.0080
    --------------------------------------------
      LOOP:  cpu time      1.2823: real time      1.2879

 eigenvalue-minimisations  :    48
 total energy-change (2. order) :-0.2746120E-04  (-0.1897264E-03)
 number of electron       6.9999992 magnetization      -0.9999998
 augmentation part        0.1525171 magnetization      -0.0449517

 Broyden mixing:
  rms(total) = 0.56975E-02    rms(broyden)= 0.56956E-02
  rms(prec ) = 0.66940E-02
  weight for this iteration     100.00

 eigenvalues of (default mixing * dielectric matrix)
  average eigenvalue GAMMA=   0.7649
  0.7649

 Free energy of the ion-electron system (eV)
  ---------------------------------------------------
  alpha Z        PSCENC =         0.19491627
  Ewald energy   TEWEN  =        82.75412759
  -Hartree energ DENC   =      -228.71306465
  -exchange      EXHF   =         0.00000000
  -V(xc)+E(xc)   XCENC  =        21.46912863
  PAW double counting   =       374.66632179     -375.42051308
  entropy T*S    EENTRO =         0.00579791
  eigenvalues    EBANDS =       -77.75236825
  atomic energy  EATOM  =       184.60771130
  Solvation  Ediel_sol  =         0.00000000
  ---------------------------------------------------
  free energy    TOTEN  =       -18.18794249 eV

  energy without entropy =      -18.19374040  energy(sigma->0) =      -18.18987513


--------------------------------------------------------------------------------------------------------




--------------------------------------- Iteration      2(   3)  ---------------------------------------


    POTLOK:  cpu time      0.0973: real time      0.0979
    SETDIJ:  cpu time      0.8891: real time      0.8911
     EDDAV:  cpu time      0.0359: real time      0.0361
       DOS:  cpu time      0.0005: real time      0.0005
    --------------------------------------------
      LOOP:  cpu time      1.0227: real time      1.0255

 eigenvalue-minimisations  :    60
 total energy-change (2. order) :-0.3944868E-04  (-0.1198264E-04)
 number of electron       6.9999992 magnetization      -0.9999998
 augmentation part        0.1525171 magnetization      -0.0449517

 Free energy of the ion-electron system (eV)
  ---------------------------------------------------
  alpha Z        PSCENC =         0.19491627
  Ewald energy   TEWEN  =        82.75412759
  -Hartree energ DENC   =      -228.73793157
  -exchange      EXHF   =         0.00000000
  -V(xc)+E(xc)   XCENC  =        21.47056286
  PAW double counting   =       375.07250318     -375.82713216
  entropy T*S    EENTRO =         0.00579791
  eigenvalues    EBANDS =       -77.72853732
  atomic energy  EATOM  =       184.60771130
  Solvation  Ediel_sol  =         0.00000000
  ---------------------------------------------------
  free energy    TOTEN  =       -18.18798194 eV

  energy without entropy =      -18.19377985  energy(sigma->0) =      -18.18991457


--------------------------------------------------------------------------------------------------------




 average (electrostatic) potential at core
  the test charge radii are     0.6991  0.5201
  (the norm of the test charge is              1.0000)
       1 -58.3961       2 -41.9841       3 -42.0838       4 -42.0631
 
 
 
 E-fermi :  -5.1727     XC(G=0):  -0.6401     alpha+bet : -0.1831

 Fermi energy:        -5.1726515376

 spin component 1

 k-point     1 :       0.0000    0.0000    0.0000
  band No.  band energies     occupation 
      1     -15.7876      1.00000
      2      -9.8724      1.00000
      3      -9.8108      1.00000
      4      -2.6749     -0.00000
      5      -0.3644     -0.00000
      6       1.0457      0.00000
      7       1.0818      0.00000
      8       1.1200      0.00000
      9       1.2426      0.00000
     10       1.4487      0.00000
     11       1.4719      0.00000
     12       2.0776      0.00000
 Fermi energy:        -5.1726515376

 spin component 2

 k-point     1 :       0.0000    0.0000    0.0000
  band No.  band energies     occupation 
      1     -16.7482      1.00000
      2     -10.1152      1.00000
      3     -10.0533      1.00000
      4      -5.3410      1.00000
      5      -0.5778     -0.00000
      6       0.9368      0.00000
      7       0.9511      0.00000
      8       0.9703      0.00000
      9       1.0738      0.00000
     10       1.1348      0.00000
     11       1.2091      0.00000
     12       1.9977      0.00000


--------------------------------------------------------------------------------------------------------


 soft charge-density along one line, spin component           1
         0         1         2         3         4         5         6         7         8         9
 total charge-density along one line
 
 soft charge-density along one line, spin component           2
         0         1         2         3         4         5         6         7         8         9
 total charge-density along one line
 
 pseudopotential strength for first ion, spin component:           1
 10.136  13.477  -0.000   0.001   0.000   0.001  -0.003  -0.001
 13.477  17.918  -0.000   0.001   0.000   0.002  -0.004  -0.001
 -0.000  -0.000  -4.364  -0.020   0.000   8.561   0.034  -0.000
  0.001   0.001  -0.020  -4.261  -0.001   0.034   8.385   0.002
  0.000   0.000   0.000  -0.001  -4.368  -0.000   0.002   8.568
  0.001   0.002   8.561   0.034  -0.000 -18.931  -0.058   0.000
 -0.003  -0.004   0.034   8.385   0.002  -0.058 -18.630  -0.004
 -0.001  -0.001  -0.000   0.002   8.568   0.000  -0.004 -18.943
 pseudopotential strength for first ion, spin component:           2
 10.311  13.715  -0.000  -0.000   0.000   0.000   0.001  -0.000
 13.715  18.241  -0.000  -0.000   0.000   0.000   0.001  -0.000
 -0.000  -0.000  -4.372   0.010  -0.000   8.542  -0.019   0.001
 -0.000  -0.000   0.010  -4.426   0.001  -0.019   8.641  -0.001
  0.000   0.000  -0.000   0.001  -4.371   0.001  -0.001   8.539
  0.000   0.000   8.542  -0.019   0.001 -18.825   0.036  -0.001
  0.001   0.001  -0.019   8.641  -0.001   0.036 -19.010   0.002
 -0.000  -0.000   0.001  -0.001   8.539  -0.001   0.002 -18.820
 total augmentation occupancy for first ion, spin component:           1
  6.524  -2.579  -0.014   0.029   0.009  -0.002   0.003   0.001
 -2.579   1.020   0.007  -0.020  -0.004   0.001  -0.001  -0.000
 -0.014   0.007   1.637   0.123   0.003   0.131   0.021   0.000
  0.029  -0.020   0.123   0.997   0.010   0.021   0.024   0.002
  0.009  -0.004   0.003   0.010   1.669   0.000   0.002   0.136
 -0.002   0.001   0.131   0.021   0.000   0.011   0.002   0.000
  0.003  -0.001   0.021   0.024   0.002   0.002   0.001   0.000
  0.001  -0.000   0.000   0.002   0.136   0.000   0.000   0.011
 total augmentation occupancy for first ion, spin component:           2
 -0.088   0.009  -0.000   0.001   0.000   0.000   0.000  -0.000
  0.009   0.007  -0.002   0.008  -0.000  -0.000   0.000   0.000
 -0.000  -0.002  -0.058   0.170  -0.002  -0.002   0.003  -0.000
  0.001   0.008   0.170  -0.943   0.012   0.003  -0.019   0.000
  0.000  -0.000  -0.002   0.012  -0.027  -0.000   0.000  -0.001
  0.000  -0.000  -0.002   0.003  -0.000  -0.000   0.000  -0.000
  0.000   0.000   0.003  -0.019   0.000   0.000  -0.000   0.000
 -0.000   0.000  -0.000   0.000  -0.001  -0.000   0.000  -0.000


------------------------ aborting loop because EDIFF is reached ----------------------------------------


    CHARGE:  cpu time      0.0155: real time      0.0156
    FORLOC:  cpu time      0.0009: real time      0.0009
    FORNL :  cpu time      0.0019: real time      0.0020
    STRESS:  cpu time      0.0084: real time      0.0085
    FORCOR:  cpu time      0.0712: real time      0.0715
    FORHAR:  cpu time      0.0086: real time      0.0086
    MIXING:  cpu time      0.0007: real time      0.0007
    OFIELD:  cpu time      0.0000: real time      0.0000

  FORCE on cell =-STRESS in cart. coord.  units (eV):
  Direction    XX          YY          ZZ          XY          YZ          ZX
  --------------------------------------------------------------------------------------
  Alpha Z     0.19492     0.19492     0.19492
  Ewald      58.43148    54.95035   -30.62773     0.21984    16.10843     1.23005
  Hartree    85.95091    85.02673    57.78984    -0.02323     4.96659     0.35828
  E(xc)     -23.66264   -23.67968   -24.19530    -0.00066     0.09925     0.00710
  Local    -195.13684  -191.29683   -88.59916    -0.08942   -19.12892    -1.42132
  n-local   -12.20640   -12.16706   -11.56802    -0.00369    -0.11521    -0.00962
  augment     0.07010     0.07145     0.04456    -0.00140     0.00513     0.00015
  Kinetic    86.45656    86.78485    96.90843    -0.02988    -1.94872    -0.14688
  Fock        0.00000     0.00000     0.00000     0.00000     0.00000     0.00000
  -------------------------------------------------------------------------------------
  Total       0.09808    -0.11527    -0.05244     0.07156    -0.01345     0.01776
  in kB       0.15714    -0.18469    -0.08402     0.11465    -0.02154     0.02846
  external pressure =       -0.04 kB  Pullay stress =        0.00 kB


 VOLUME and BASIS-vectors are now :
 -----------------------------------------------------------------------------
  energy-cutoff  :      500.00
  volume of cell :     1000.00
      direct lattice vectors                 reciprocal lattice vectors
    10.000000000  0.000000000  0.000000000     0.100000000  0.000000000  0.000000000
     0.000000000 10.000000000  0.000000000     0.000000000  0.100000000  0.000000000
     0.000000000  0.000000000 10.000000000     0.000000000  0.000000000  0.100000000

  length of vectors
    10.000000000 10.000000000 10.000000000     0.100000000  0.100000000  0.100000000


 FORCES acting on ions
    electron-ion (+dipol)            ewald-force                    non-local-force                 convergence-correction
 -----------------------------------------------------------------------------------------------
   0.366E+00 -.520E+00 0.159E+01   -.436E+00 0.599E+00 -.167E+01   -.909E-01 0.104E+00 0.154E+00   -.311E-01 0.431E-01 -.403E-02
   0.229E+02 -.429E+02 -.821E+01   -.255E+02 0.478E+02 0.914E+01   0.266E+01 -.498E+01 -.960E+00   0.652E-03 -.224E-02 -.212E-02
   -.497E+02 0.196E+01 -.825E+00   0.557E+02 -.221E+01 0.920E+00   -.588E+01 0.226E+00 -.107E+00   0.638E-02 0.351E-02 -.808E-03
   0.266E+02 0.413E+02 0.749E+01   -.298E+02 -.462E+02 -.838E+01   0.313E+01 0.485E+01 0.872E+00   -.684E-02 -.273E-02 -.219E-02
 -----------------------------------------------------------------------------------------------
   0.202E+00 -.238E+00 0.479E-01   0.000E+00 0.000E+00 0.000E+00   -.175E+00 0.201E+00 -.403E-01   -.309E-01 0.417E-01 -.915E-02
 
 
 POSITION                                       TOTAL-FORCE (eV/Angst)
 -----------------------------------------------------------------------------------
      5.41786      5.02790      3.55499        -0.190502      0.224509      0.069138
      4.91107      5.97702      3.73795         0.062095     -0.135663     -0.036397
      6.49881      4.98519      3.57449         0.155689     -0.025994     -0.011164
      4.83675      4.12679      3.39317        -0.027282     -0.062853     -0.021577
 -----------------------------------------------------------------------------------
    total drift:                               -0.003640      0.004636     -0.001536


--------------------------------------------------------------------------------------------------------



  FREE ENERGIE OF THE ION-ELECTRON SYSTEM (eV)
  ---------------------------------------------------
  free  energy   TOTEN  =       -18.18798194 eV

  energy  without entropy=      -18.19377985  energy(sigma->0) =      -18.18991457
 
 d Force =-0.5475084E-03[-0.219E-02, 0.110E-02]  d Energy =-0.6765368E-03 0.129E-03
 d Force =-0.3203136E+00[-0.323E+00,-0.317E+00]  d Ewald  =-0.3203130E+00-0.684E-06


--------------------------------------------------------------------------------------------------------


    POTLOK:  cpu time      0.9717: real time      0.9749

 Total magnetic moment S=     0.9999998

 Fermi contact (isotropic) hyperfine coupling parameter (MHz) 
 -------------------------------------------------------------
  ion      A_pw      A_1PS     A_1AE     A_1c      A_tot
 -------------------------------------------------------------
   1     -52.610   -53.040  -183.374    96.340  -182.944
   2      39.721    40.135    64.994     0.000    64.580
   3      39.273    39.347    63.672     0.000    63.598
   4      39.433    39.618    64.125     0.000    63.940
 -------------------------------------------------------------


 Dipolar hyperfine coupling parameters (MHz)
 ---------------------------------------------------------------------
  ion      A_xx      A_yy      A_zz      A_xy      A_xz      A_yz
 ---------------------------------------------------------------------
   1      84.143    75.699  -159.842    -0.573     3.211    45.321
   2      22.962   -19.896    -3.065    30.758     6.265    -3.230
   3     -37.110    38.585    -1.475     2.878    -0.383     7.756
   4      17.817   -14.580    -3.237   -34.330    -5.858    -2.249
 ---------------------------------------------------------------------


 Total hyperfine coupling parameters after diagonalization (MHz)
 (convention: |A_zz| > |A_xx| > |A_yy|)
 ----------------------------------------------------------------------
  ion      A_xx      A_yy      A_zz     asymmetry (A_yy - A_xx)/ A_zz 
 ----------------------------------------------------------------------
   1     -98.833   -98.752  -351.247      -0.000
   2      62.109    27.639   103.991      -0.331
   3      60.698    26.366   103.731      -0.331
   4      61.128    26.845   103.846      -0.330
 ---------------------------------------------------------------------



--------------------------------------------------------------------------------------------------------


 Steepest descent step on ions:
 trial-energy change:    0.000677  1 .order    0.000548   -0.001097    0.002192
  (g-gl).g = 0.110E-02      g.g   = 0.110E-02  gl.gl    = 0.000E+00
 g(Force)  = 0.110E-02   g(Stress)= 0.000E+00 ortho     = 0.000E+00
 gamma     =   0.00000
 trial     =   1.00000
 opt step  =   0.33356  (harmonic =   0.33356) maximal distance =0.00115474
 next E    =   -18.188841   (d E  =  -0.00018)


--------------------------------------------------------------------------------------------------------


    WAVPRE:  cpu time      0.0077: real time      0.0247
    FEWALD:  cpu time      0.0002: real time      0.0002
    ORTHCH:  cpu time      0.0022: real time      0.0022
     LOOP+:  cpu time      5.3108: real time      5.3542


--------------------------------------- Ionic step        3  -------------------------------------------




--------------------------------------- Iteration      3(   1)  ---------------------------------------


    POTLOK:  cpu time      0.1094: real time      0.1101
    SETDIJ:  cpu time      0.8888: real time      0.8907
     EDDAV:  cpu time      0.0330: real time      0.0332
       DOS:  cpu time      0.0004: real time      0.0004
    CHARGE:  cpu time      0.0157: real time      0.0158
    MIXING:  cpu time      0.0007: real time      0.0007
    --------------------------------------------
      LOOP:  cpu time      1.0480: real time      1.0509

 eigenvalue-minimisations  :    52
 total energy-change (2. order) :-0.7565977E-03  (-0.3731596E-02)
 number of electron       6.9999992 magnetization      -0.9999998
 augmentation part        0.1520833 magnetization      -0.0448913

 Broyden mixing:
  rms(total) = 0.60442E-02    rms(broyden)= 0.60313E-02
  rms(prec ) = 0.69425E-02
  weight for this iteration     100.00

 Free energy of the ion-electron system (eV)
  ---------------------------------------------------
  alpha Z        PSCENC =         0.19491627
  Ewald energy   TEWEN  =        82.54000418
  -Hartree energ DENC   =      -228.64180440
  -exchange      EXHF   =         0.00000000
  -V(xc)+E(xc)   XCENC  =        21.46535523
  PAW double counting   =       375.61859856     -376.37357658
  entropy T*S    EENTRO =         0.00579791
  eigenvalues    EBANDS =       -77.60570156
  atomic energy  EATOM  =       184.60771130
  Solvation  Ediel_sol  =         0.00000000
  ---------------------------------------------------
  free energy    TOTEN  =       -18.18869909 eV

  energy without entropy =      -18.19449699  energy(sigma->0) =      -18.19063172


--------------------------------------------------------------------------------------------------------




--------------------------------------- Iteration      3(   2)  ---------------------------------------


    POTLOK:  cpu time      0.0814: real time      0.0820
    SETDIJ:  cpu time      0.8893: real time      0.8913
     EDDAV:  cpu time      0.0322: real time      0.0323
       DOS:  cpu time      0.0005: real time      0.0005
    --------------------------------------------
      LOOP:  cpu time      1.0033: real time      1.0060

 eigenvalue-minimisations  :    48
 total energy-change (2. order) :-0.2827760E-04  (-0.9908313E-04)
 number of electron       6.9999992 magnetization      -0.9999998
 augmentation part        0.1520833 magnetization      -0.0448913

 Free energy of the ion-electron system (eV)
  ---------------------------------------------------
  alpha Z        PSCENC =         0.19491627
  Ewald energy   TEWEN  =        82.54000418
  -Hartree energ DENC   =      -228.59754135
  -exchange      EXHF   =         0.00000000
  -V(xc)+E(xc)   XCENC  =        21.46255219
  PAW double counting   =       375.25764403     -376.01200940
  entropy T*S    EENTRO =         0.00579791
  eigenvalues    EBANDS =       -77.64780248
  atomic energy  EATOM  =       184.60771130
  Solvation  Ediel_sol  =         0.00000000
  ---------------------------------------------------
  free energy    TOTEN  =       -18.18872737 eV

  energy without entropy =      -18.19452527  energy(sigma->0) =      -18.19066000


--------------------------------------------------------------------------------------------------------




 average (electrostatic) potential at core
  the test charge radii are     0.6991  0.5201
  (the norm of the test charge is              1.0000)
       1 -58.3893       2 -42.0381       3 -42.0209       4 -42.0299
 
 
 
 E-fermi :  -5.1681     XC(G=0):  -0.6446     alpha+bet : -0.1831

 Fermi energy:        -5.1681348001

 spin component 1

 k-point     1 :       0.0000    0.0000    0.0000
  band No.  band energies     occupation 
      1     -15.7731      1.00000
      2      -9.8416      1.00000
      3      -9.8184      1.00000
      4      -2.6706     -0.00000
      5      -0.3661     -0.00000
      6       1.0540      0.00000
      7       1.0872      0.00000
      8       1.1025      0.00000
      9       1.2188      0.00000
     10       1.4335      0.00000
     11       1.4800      0.00000
     12       2.0978      0.00000
 Fermi energy:        -5.1681348001

 spin component 2

 k-point     1 :       0.0000    0.0000    0.0000
  band No.  band energies     occupation 
      1     -16.7335      1.00000
      2     -10.0837      1.00000
      3     -10.0611      1.00000
      4      -5.3365      1.00000
      5      -0.5779     -0.00000
      6       0.9345      0.00000
      7       0.9581      0.00000
      8       0.9651      0.00000
      9       1.0670      0.00000
     10       1.1464      0.00000
     11       1.2128      0.00000
     12       1.9861      0.00000


--------------------------------------------------------------------------------------------------------


 soft charge-density along one line, spin component           1
         0         1         2         3         4         5         6         7         8         9
 total charge-density along one line
 
 soft charge-density along one line, spin component           2
         0         1         2         3         4         5         6         7         8         9
 total charge-density along one line
 
 pseudopotential strength for first ion, spin component:           1
 10.136  13.477  -0.000   0.001  -0.000   0.000  -0.003   0.000
 13.477  17.917  -0.000   0.001  -0.000   0.001  -0.004   0.000
 -0.000  -0.000  -4.364  -0.020   0.000   8.561   0.034  -0.000
  0.001   0.001  -0.020  -4.261  -0.001   0.034   8.385   0.002
 -0.000  -0.000   0.000  -0.001  -4.368  -0.000   0.002   8.567
  0.000   0.001   8.561   0.034  -0.000 -18.931  -0.058   0.001
 -0.003  -0.004   0.034   8.385   0.002  -0.058 -18.630  -0.004
  0.000   0.000  -0.000   0.002   8.567   0.001  -0.004 -18.941
 pseudopotential strength for first ion, spin component:           2
 10.311  13.714   0.000  -0.000  -0.000  -0.001   0.001   0.000
 13.714  18.240   0.000  -0.000  -0.000  -0.001   0.001   0.000
  0.000   0.000  -4.372   0.010  -0.000   8.542  -0.019   0.000
 -0.000  -0.000   0.010  -4.426   0.001  -0.019   8.640  -0.001
 -0.000  -0.000  -0.000   0.001  -4.370   0.000  -0.001   8.538
 -0.001  -0.001   8.542  -0.019   0.000 -18.825   0.035  -0.000
  0.001   0.001  -0.019   8.640  -0.001   0.035 -19.009   0.003
  0.000   0.000   0.000  -0.001   8.538  -0.000   0.003 -18.817
 total augmentation occupancy for first ion, spin component:           1
  6.526  -2.582  -0.000   0.034  -0.000   0.000   0.004   0.000
 -2.582   1.021  -0.001  -0.023   0.001  -0.000  -0.002   0.000
 -0.000  -0.001   1.637   0.123  -0.001   0.131   0.021  -0.000
  0.034  -0.023   0.123   0.997   0.009   0.021   0.024   0.002
 -0.000   0.001  -0.001   0.009   1.661  -0.000   0.002   0.135
  0.000  -0.000   0.131   0.021  -0.000   0.011   0.002   0.000
  0.004  -0.002   0.021   0.024   0.002   0.002   0.001   0.000
  0.000   0.000  -0.000   0.002   0.135   0.000   0.000   0.011
 total augmentation occupancy for first ion, spin component:           2
 -0.093   0.012  -0.001   0.001   0.002  -0.000  -0.000   0.000
  0.012   0.005  -0.000   0.009  -0.001   0.000   0.000  -0.000
 -0.001  -0.000  -0.058   0.170  -0.002  -0.002   0.003  -0.000
  0.001   0.009   0.170  -0.942   0.012   0.003  -0.020   0.000
  0.002  -0.001  -0.002   0.012  -0.027  -0.000   0.000  -0.001
 -0.000   0.000  -0.002   0.003  -0.000  -0.000   0.000  -0.000
 -0.000   0.000   0.003  -0.020   0.000   0.000  -0.000   0.000
  0.000  -0.000  -0.000   0.000  -0.001  -0.000   0.000  -0.000


------------------------ aborting loop because EDIFF is reached ----------------------------------------


    CHARGE:  cpu time      0.0156: real time      0.0156
    FORLOC:  cpu time      0.0012: real time      0.0012
    FORNL :  cpu time      0.0020: real time      0.0020
    STRESS:  cpu time      0.0073: real time      0.0073
    FORCOR:  cpu time      0.0689: real time      0.0692
    FORHAR:  cpu time      0.0082: real time      0.0083
    MIXING:  cpu time      0.0006: real time      0.0006
    OFIELD:  cpu time      0.0000: real time      0.0000

  FORCE on cell =-STRESS in cart. coord.  units (eV):
  Direction    XX          YY          ZZ          XY          YZ          ZX
  --------------------------------------------------------------------------------------
  Alpha Z     0.19492     0.19492     0.19492
  Ewald      57.95430    55.19937   -30.61371     0.00799    16.15325     1.18352
  Hartree    85.83852    84.97562    57.71211    -0.02056     4.97083     0.35913
  E(xc)     -23.65414   -23.67081   -24.18710     0.00017     0.09934     0.00730
  Local    -194.69604  -191.41738   -88.52150     0.03827   -19.16516    -1.39377
  n-local   -12.17003   -12.14023   -11.54405     0.00289    -0.11494    -0.00819
  augment     0.07243     0.07106     0.04465    -0.00029     0.00502     0.00040
  Kinetic    86.39829    86.63225    96.81802    -0.02577    -1.95978    -0.14687
  Fock        0.00000     0.00000     0.00000     0.00000     0.00000     0.00000
  -------------------------------------------------------------------------------------
  Total      -0.06176    -0.15521    -0.09667     0.00269    -0.01144     0.00152
  in kB      -0.09895    -0.24868    -0.15488     0.00431    -0.01832     0.00243
  external pressure =       -0.17 kB  Pullay stress =        0.00 kB


 VOLUME and BASIS-vectors are now :
 -----------------------------------------------------------------------------
  energy-cutoff  :      500.00
  volume of cell :     1000.00
      direct lattice vectors                 reciprocal lattice vectors
    10.000000000  0.000000000  0.000000000     0.100000000  0.000000000  0.000000000
     0.000000000 10.000000000  0.000000000     0.000000000  0.100000000  0.000000000
     0.000000000  0.000000000 10.000000000     0.000000000  0.000000000  0.100000000

  length of vectors
    10.000000000 10.000000000 10.000000000     0.100000000  0.100000000  0.100000000


 FORCES acting on ions
    electron-ion (+dipol)            ewald-force                    non-local-force                 convergence-correction
 -----------------------------------------------------------------------------------------------
   0.151E+00 -.140E+00 0.184E+01   -.220E+00 0.241E+00 -.197E+01   -.818E-02 0.128E-01 0.164E+00   0.485E-01 -.663E-01 0.515E-02
   0.229E+02 -.431E+02 -.831E+01   -.256E+02 0.481E+02 0.927E+01   0.267E+01 -.504E+01 -.981E+00   0.181E-02 -.182E-02 0.191E-02
   -.495E+02 0.204E+01 -.877E+00   0.553E+02 -.228E+01 0.974E+00   -.580E+01 0.236E+00 -.113E+00   -.116E-01 -.584E-02 0.718E-03
   0.264E+02 0.412E+02 0.741E+01   -.295E+02 -.460E+02 -.828E+01   0.309E+01 0.483E+01 0.857E+00   0.116E-01 0.501E-02 0.310E-02
 -----------------------------------------------------------------------------------------------
   -.157E-01 0.466E-01 0.553E-01   0.000E+00 0.000E+00 -.178E-14   -.454E-01 0.361E-01 -.730E-01   0.504E-01 -.690E-01 0.109E-01
 
 
 POSITION                                       TOTAL-FORCE (eV/Angst)
 -----------------------------------------------------------------------------------
      5.41555      5.03016      3.55406        -0.025987      0.044449      0.041095
      4.91216      5.97674      3.73832         0.001849     -0.047312     -0.019796
      6.50094      4.98546      3.57503         0.018444     -0.015790     -0.013498
      4.83585      4.12453      3.39319         0.005694      0.018653     -0.007800
 -----------------------------------------------------------------------------------
    total drift:                               -0.010661      0.013757     -0.006782


--------------------------------------------------------------------------------------------------------



  FREE ENERGIE OF THE ION-ELECTRON SYSTEM (eV)
  ---------------------------------------------------
  free  energy   TOTEN  =       -18.18872737 eV

  energy  without entropy=      -18.19452527  energy(sigma->0) =      -18.19066000
 
 d Force = 0.7860306E-03[ 0.111E-03, 0.146E-02]  d Energy = 0.7454267E-03 0.406E-04
 d Force = 0.2141236E+00[ 0.213E+00, 0.215E+00]  d Ewald  = 0.2141234E+00 0.197E-06


--------------------------------------------------------------------------------------------------------


    POTLOK:  cpu time      0.9683: real time      0.9714

 Total magnetic moment S=     0.9999998

 Fermi contact (isotropic) hyperfine coupling parameter (MHz) 
 -------------------------------------------------------------
  ion      A_pw      A_1PS     A_1AE     A_1c      A_tot
 -------------------------------------------------------------
   1     -52.618   -53.046  -183.392    96.372  -182.963
   2      39.590    39.952    64.684     0.000    64.322
   3      39.331    39.446    63.848     0.000    63.733
   4      39.459    39.663    64.206     0.000    64.002
 -------------------------------------------------------------


 Dipolar hyperfine coupling parameters (MHz)
 ---------------------------------------------------------------------
  ion      A_xx      A_yy      A_zz      A_xy      A_xz      A_yz
 ---------------------------------------------------------------------
   1      84.110    75.712  -159.821    -0.586     3.204    45.322
   2      23.261   -19.995    -3.266    30.813     6.317    -3.285
   3     -36.984    38.256    -1.272     2.974    -0.437     7.658
   4      17.900   -14.823    -3.077   -34.114    -5.782    -2.256
 ---------------------------------------------------------------------


 Total hyperfine coupling parameters after diagonalization (MHz)
 (convention: |A_zz| > |A_xx| > |A_yy|)
 ----------------------------------------------------------------------
  ion      A_xx      A_yy      A_zz     asymmetry (A_yy - A_xx)/ A_zz 
 ----------------------------------------------------------------------
   1     -98.835   -98.808  -351.246      -0.000
   2      61.675    27.297   103.995      -0.331
   3      61.057    26.616   103.526      -0.333
   4      61.341    26.968   103.696      -0.331
 ---------------------------------------------------------------------



--------------------------------------------------------------------------------------------------------




--------------------------------------------------------------------------------------------------------


  
 reached required accuracy - stopping structural energy minimisation
 writing wavefunctions
     LOOP+:  cpu time      4.1246: real time      4.2057
    4ORBIT:  cpu time      0.0000: real time      0.0000

 total amount of memory used by VASP MPI-rank0    35981. kBytes
=======================================================================

   base      :      30000. kBytes
   nonl-proj :        202. kBytes
   fftplans  :       1578. kBytes
   grid      :       4093. kBytes
   one-center:          6. kBytes
   wavefun   :        102. kBytes
 
  
  
 General timing and accounting informations for this job:
 ========================================================
  
                  Total CPU time used (sec):       23.007
                            User time (sec):       22.028
                          System time (sec):        0.979
                         Elapsed time (sec):       27.520
  
                   Maximum memory used (kb):      266728.
                   Average memory used (kb):          N/A
  
                          Minor page faults:        28823
                          Major page faults:          159
                 Voluntary context switches:         2570
