 vasp.6.4.1 05Apr23 (build Jan 13 2025 16:05:33) complex                        
  
 executed on             LinuxIFC date 2025.12.04  13:08:45
 running   96 mpi-ranks, on    4 nodes
 distrk:  each k-point on   96 cores,    1 groups
 distr:  one band on NCORE=  24 cores,    4 groups


--------------------------------------------------------------------------------------------------------


 INCAR:
   NCORE = 24
   SYSTEM = SiH3
   PREC = HIGH
   IBRION = 2
   NSW = 100
   ISPIN = 2
   LHYPERFINE = .TRUE.
   NGYROMAG = -8.461871 42.577478518

 POTCAR:    PAW_PBE Si 05Jan2001                  
 POTCAR:    PAW_PBE H 15Jun2001                   
 -----------------------------------------------------------------------------
|                                                                             |
|           W    W    AA    RRRRR   N    N  II  N    N   GGGG   !!!           |
|           W    W   A  A   R    R  NN   N  II  NN   N  G    G  !!!           |
|           W    W  A    A  R    R  N N  N  II  N N  N  G       !!!           |
|           W WW W  AAAAAA  RRRRR   N  N N  II  N  N N  G  GGG   !            |
|           WW  WW  A    A  R   R   N   NN  II  N   NN  G    G                |
|           W    W  A    A  R    R  N    N  II  N    N   GGGG   !!!           |
|                                                                             |
|     You use a magnetic or noncollinear calculation, but did not specify     |
|     the initial magnetic moment with the MAGMOM tag. Note that a            |
|     default of 1 will be used for all atoms. This ferromagnetic setup       |
|     may break the symmetry of the crystal, in particular it may rule        |
|     out finding an antiferromagnetic solution. Thence, we recommend         |
|     setting the initial magnetic moment manually or verifying carefully     |
|     that this magnetic setup is desired.                                    |
|                                                                             |
 -----------------------------------------------------------------------------

 -----------------------------------------------------------------------------
|                                                                             |
|           W    W    AA    RRRRR   N    N  II  N    N   GGGG   !!!           |
|           W    W   A  A   R    R  NN   N  II  NN   N  G    G  !!!           |
|           W    W  A    A  R    R  N N  N  II  N N  N  G       !!!           |
|           W WW W  AAAAAA  RRRRR   N  N N  II  N  N N  G  GGG   !            |
|           WW  WW  A    A  R   R   N   NN  II  N   NN  G    G                |
|           W    W  A    A  R    R  N    N  II  N    N   GGGG   !!!           |
|                                                                             |
|     For optimal performance we recommend to set                             |
|       NCORE = 2 up to number-of-cores-per-socket                            |
|     NCORE specifies how many cores store one orbital (NPAR=cpu/NCORE).      |
|     This setting can greatly improve the performance of VASP for DFT.       |
|     The default, NCORE=1 might be grossly inefficient on modern             |
|     multi-core architectures or massively parallel machines. Do your        |
|     own testing! More info at https://www.vasp.at/wiki/index.php/NCORE      |
|     Unfortunately you need to use the default for GW and RPA                |
|     calculations (for HF NCORE is supported but not extensively tested      |
|     yet).                                                                   |
|                                                                             |
 -----------------------------------------------------------------------------

 POTCAR:    PAW_PBE Si 05Jan2001                  
   SHA256 =  79d9987ad8750f624c4d6acb2a16d13abf6a777132adc04dc6c8399be72b42bb Si/POTCAR             
   COPYR  = (c) Copyright 05Jan2001 Georg Kresse                                                    
   COPYR  = This file is part of the software VASP. Any use, copying, and all other rights are regul
   COPYR  = If you do not have a valid VASP license, you may not use, copy or distribute this file. 
   VRHFIN =Si: s2p2                                                                                 
   LEXCH  = PE                                                                                      
   EATOM  =   103.0669 eV,    7.5752 Ry                                                             
                                                                                                    
   TITEL  = PAW_PBE Si 05Jan2001                                                                    
   LULTRA =        F    use ultrasoft PP ?                                                          
   IUNSCR =        1    unscreen: 0-lin 1-nonlin 2-no                                               
   RPACOR =    1.500    partial core radius                                                         
   POMASS =   28.085; ZVAL   =    4.000    mass and valenz                                          
   RCORE  =    1.900    outmost cutoff radius                                                       
   RWIGS  =    2.480; RWIGS  =    1.312    wigner-seitz radius (au A)                               
   ENMAX  =  245.345; ENMIN  =  184.009 eV                                                          
   ICORE  =        2    local potential                                                             
   LCOR   =        T    correct aug charges                                                         
   LPAW   =        T    paw PP                                                                      
   EAUG   =  322.069                                                                                
   DEXC   =    0.000                                                                                
   RMAX   =    1.950    core radius for proj-oper                                                   
   RAUG   =    1.300    factor for augmentation sphere                                              
   RDEP   =    1.993    radius for radial grids                                                     
   RDEPT  =    1.837    core radius for aug-charge                                                  
                                                                                                    
   Atomic configuration                                                                             
    6 entries                                                                                       
     n  l   j            E        occ.                                                              
     1  0  0.50     -1785.8828   2.0000                                                             
     2  0  0.50      -139.4969   2.0000                                                             
     2  1  1.50       -95.5546   6.0000                                                             
     3  0  0.50       -10.8127   2.0000                                                             
     3  1  0.50        -4.0811   2.0000                                                             
     3  2  1.50        -4.0817   0.0000                                                             
   Description                                                                                      
     l       E           TYP  RCUT    TYP  RCUT                                                     
     0    -10.8127223     23  1.900                                                                 
     0     -7.6451159     23  1.900                                                                 
     1     -4.0811372     23  1.900                                                                 
     1      2.4879257     23  1.900                                                                 
     2     -4.0817478      7  1.900                                                                 
  local pseudopotential read in
  partial core-charges read in
  partial kinetic energy density read in
  atomic valenz-charges read in
  non local Contribution for L=           0  read in
    real space projection operators read in
  non local Contribution for L=           0  read in
    real space projection operators read in
  non local Contribution for L=           1  read in
    real space projection operators read in
  non local Contribution for L=           1  read in
    real space projection operators read in
    PAW grid and wavefunctions read in
 
   number of l-projection  operators is LMAX  =           4
   number of lm-projection operators is LMMAX =           8
 
 POTCAR:    PAW_PBE H 15Jun2001                   
   SHA256 =  030f79b5d3ab3cf0e668861823c8fb652ff669f3e15e46930bd03bfd63a607b6 H/POTCAR              
   COPYR  = (c) Copyright 15Jun2001 Georg Kresse                                                    
   COPYR  = This file is part of the software VASP. Any use, copying, and all other rights are regul
   COPYR  = If you do not have a valid VASP license, you may not use, copy or distribute this file. 
   VRHFIN =H: ultrasoft test                                                                        
   LEXCH  = PE                                                                                      
   EATOM  =    12.4884 eV,    0.9179 Ry                                                             
                                                                                                    
   TITEL  = PAW_PBE H 15Jun2001                                                                     
   LULTRA =        F    use ultrasoft PP ?                                                          
   IUNSCR =        0    unscreen: 0-lin 1-nonlin 2-no                                               
   RPACOR =    0.000    partial core radius                                                         
   POMASS =    1.000; ZVAL   =    1.000    mass and valenz                                          
   RCORE  =    1.100    outmost cutoff radius                                                       
   RWIGS  =    0.700; RWIGS  =    0.370    wigner-seitz radius (au A)                               
   ENMAX  =  250.000; ENMIN  =  200.000 eV                                                          
   RCLOC  =    0.701    cutoff for local pot                                                        
   LCOR   =        T    correct aug charges                                                         
   LPAW   =        T    paw PP                                                                      
   EAUG   =  400.000                                                                                
   RMAX   =    1.123    core radius for proj-oper                                                   
   RAUG   =    1.200    factor for augmentation sphere                                              
   RDEP   =    1.112    radius for radial grids                                                     
   RDEPT  =    0.926    core radius for aug-charge                                                  
                                                                                                    
   Atomic configuration                                                                             
    2 entries                                                                                       
     n  l   j            E        occ.                                                              
     1  0  0.50        -6.4927   1.0000                                                             
     2  1  0.50        -3.4015   0.0000                                                             
   Description                                                                                      
     l       E           TYP  RCUT    TYP  RCUT                                                     
     0     -6.4927494     23  1.100                                                                 
     0      6.8029130     23  1.100                                                                 
     1     -4.0817478     23  1.100                                                                 
  local pseudopotential read in
  atomic valenz-charges read in
  non local Contribution for L=           0  read in
    real space projection operators read in
  non local Contribution for L=           0  read in
    real space projection operators read in
  non local Contribution for L=           1  read in
    real space projection operators read in
    PAW grid and wavefunctions read in
 
   number of l-projection  operators is LMAX  =           3
   number of lm-projection operators is LMMAX =           5
 
  PAW_PBE Si 05Jan2001                  :
 energy of atom  1       EATOM= -103.0669
 kinetic energy error for atom=    0.0017 (will be added to EATOM!!)
  PAW_PBE H 15Jun2001                   :
 energy of atom  2       EATOM=  -12.4884
 kinetic energy error for atom=    0.0358 (will be added to EATOM!!)
 
 
 POSCAR: SiH3 molecule
  positions in direct lattice
  velocities in cartesian coordinates
 exchange correlation table for  LEXCH =        8
   RHO(1)=    0.500       N(1)  =     2000
   RHO(2)=  100.500       N(2)  =     4000
 


--------------------------------------------------------------------------------------------------------


 ion  position               nearest neighbor table
   1  0.517  0.490  0.411-   2 1.49   3 1.49   4 1.50
   2  0.491  0.636  0.424-   1 1.49
   3  0.650  0.465  0.348-   1 1.49
   4  0.507  0.421  0.543-   1 1.50
 
  LATTYP: Found a simple cubic cell.
 ALAT       =    10.0000000000
  
  Lattice vectors:
  
 A1 = (  10.0000000000,   0.0000000000,   0.0000000000)
 A2 = (   0.0000000000,  10.0000000000,   0.0000000000)
 A3 = (   0.0000000000,   0.0000000000,  10.0000000000)


Analysis of symmetry for initial positions (statically):
=====================================================================
 Subroutine PRICEL returns:
 Original cell was already a primitive cell.
 

 Routine SETGRP: Setting up the symmetry group for a 
 simple cubic supercell.


 Subroutine GETGRP returns: Found  1 space group operations
 (whereof  1 operations were pure point group operations)
 out of a pool of 48 trial point group operations.


The static configuration has the point symmetry C_1 .


Analysis of symmetry for dynamics (positions and initial velocities):
=====================================================================
 Subroutine PRICEL returns:
 Original cell was already a primitive cell.
 

 Routine SETGRP: Setting up the symmetry group for a 
 simple cubic supercell.


 Subroutine GETGRP returns: Found  1 space group operations
 (whereof  1 operations were pure point group operations)
 out of a pool of 48 trial point group operations.


The dynamic configuration has the point symmetry C_1 .


Analysis of structural, dynamic, and magnetic symmetry:
=====================================================================
 Subroutine PRICEL returns:
 Original cell was already a primitive cell.
 

 Routine SETGRP: Setting up the symmetry group for a 
 simple cubic supercell.


 Subroutine GETGRP returns: Found  1 space group operations
 (whereof  1 operations were pure point group operations)
 out of a pool of 48 trial point group operations.


The overall configuration has the point symmetry C_1 .


 Subroutine INISYM returns: Found  1 space group operations
 (whereof  1 operations are pure point group operations),
 and found     1 'primitive' translations


----------------------------------------------------------------------------------------

                                     Primitive cell                                     

  volume of cell :    1000.0000

  direct lattice vectors                    reciprocal lattice vectors
    10.000000000  0.000000000  0.000000000     0.100000000  0.000000000  0.000000000
     0.000000000 10.000000000  0.000000000     0.000000000  0.100000000  0.000000000
     0.000000000  0.000000000 10.000000000     0.000000000  0.000000000  0.100000000

  length of vectors
    10.000000000 10.000000000 10.000000000     0.100000000  0.100000000  0.100000000

  position of ions in fractional coordinates (direct lattice)
     0.517475309  0.489842107  0.411152832
     0.491250962  0.636031688  0.423772768
     0.650328987  0.465037633  0.347697965
     0.507399822  0.420777343  0.543438281

  ion indices of the primitive-cell ions
   primitive index   ion index
                 1           1
                 2           2
                 3           3
                 4           4

----------------------------------------------------------------------------------------

 
 
 KPOINTS: test case                               

Automatic generation of k-mesh.
 Grid dimensions read from file:
 generate k-points for:    1    1    1

 Generating k-lattice:

  Cartesian coordinates                     Fractional coordinates (reciprocal lattice)
     0.100000000  0.000000000  0.000000000     1.000000000  0.000000000  0.000000000
     0.000000000  0.100000000  0.000000000     0.000000000  1.000000000  0.000000000
     0.000000000  0.000000000  0.100000000     0.000000000  0.000000000  1.000000000

  Length of vectors
     0.100000000  0.100000000  0.100000000

  Shift w.r.t. Gamma in fractional coordinates (k-lattice)
     0.000000000  0.000000000  0.000000000

 
 Subroutine IBZKPT returns following result:
 ===========================================
 
 Found      1 irreducible k-points:
 
 Following reciprocal coordinates:
            Coordinates               Weight
  0.000000  0.000000  0.000000      1.000000
 
 Following cartesian coordinates:
            Coordinates               Weight
  0.000000  0.000000  0.000000      1.000000
 


--------------------------------------------------------------------------------------------------------




 Dimension of arrays:
   k-points           NKPTS =      1   k-points in BZ     NKDIM =      1   number of bands    NBANDS=     12
   number of dos      NEDOS =    301   number of ions     NIONS =      4
   non local maximal  LDIM  =      4   non local SUM 2l+1 LMDIM =      8
   total plane-waves  NPLWV = 216000
   max r-space proj   IRMAX =      1   max aug-charges    IRDMAX=   3246
   dimension x,y,z NGX =    60 NGY =   60 NGZ =   60
   dimension x,y,z NGXF=    90 NGYF=   90 NGZF=   90
   support grid    NGXF=    90 NGYF=   90 NGZF=   90
   ions per type =               1   3
   NGX,Y,Z   is equivalent  to a cutoff of   9.97,  9.97,  9.97 a.u.
   NGXF,Y,Z  is equivalent  to a cutoff of  14.96, 14.96, 14.96 a.u.

 SYSTEM =  SiH3                                    
 POSCAR =  SiH3 molecule                           

 Startparameter for this run:
   NWRITE =      2    write-flag & timer
   PREC   = high      normal or accurate (medium, high low for compatibility)
   ISTART =      1    job   : 0-new  1-cont  2-samecut
   ICHARG =      0    charge: 1-file 2-atom 10-const
   ISPIN  =      2    spin polarized calculation?
   LNONCOLLINEAR =      F non collinear calculations
   LSORBIT =      F    spin-orbit coupling
   INIWAV =      1    electr: 0-lowe 1-rand  2-diag
   LASPH  =      F    aspherical Exc in radial PAW
 Electronic Relaxation 1
   ENCUT  =  312.5 eV  22.97 Ry    4.79 a.u.  14.41 14.41 14.41*2*pi/ulx,y,z
   ENINI  =  312.5     initial cutoff
   ENAUG  =  400.0 eV  augmentation charge cutoff
   NELM   =     60;   NELMIN=  2; NELMDL=  0     # of ELM steps 
   EDIFF  = 0.1E-03   stopping-criterion for ELM
   LREAL  =      F    real-space projection
   NLSPLINE    = F    spline interpolate recip. space projectors
   LCOMPAT=      F    compatible to vasp.4.4
   GGA_COMPAT  = T    GGA compatible to vasp.4.4-vasp.4.6
   LMAXPAW     = -100 max onsite density
   LMAXMIX     =    2 max onsite mixed and CHGCAR
   VOSKOWN=      0    Vosko Wilk Nusair interpolation
   ROPT   =    0.00000   0.00000
 Ionic relaxation
   EDIFFG = 0.1E-02   stopping-criterion for IOM
   NSW    =    100    number of steps for IOM
   NBLOCK =      1;   KBLOCK =    100    inner block; outer block 
   IBRION =      2    ionic relax: 0-MD 1-quasi-New 2-CG
   NFREE  =      1    steps in history (QN), initial steepest desc. (CG)
   ISIF   =      2    stress and relaxation
   IWAVPR =     11    prediction:  0-non 1-charg 2-wave 3-comb
   ISYM   =      2    0-nonsym 1-usesym 2-fastsym
   LCORR  =      T    Harris-Foulkes like correction to forces

   POTIM  = 0.5000    time-step for ionic-motion
   TEIN   =    0.0    initial temperature
   TEBEG  =    0.0;   TEEND  =   0.0 temperature during run
   SMASS  =  -3.00    Nose mass-parameter (am)
   estimated Nose-frequenzy (Omega)   =  0.10E-29 period in steps = 0.13E+47 mass=  -0.229E-26a.u.
   SCALEE = 1.0000    scale energy and forces
   NPACO  =    256;   APACO  = 10.0  distance and # of slots for P.C.
   PSTRESS=    0.0 pullay stress

  Mass of Ions in am
   POMASS =  28.09  1.00
  Ionic Valenz
   ZVAL   =   4.00  1.00
  Atomic Wigner-Seitz radii
   RWIGS  =  -1.00 -1.00
  virtual crystal weights 
   VCA    =   1.00  1.00
   NELECT =       7.0000    total number of electrons
   NUPDOWN=      -1.0000    fix difference up-down

 DOS related values:
   EMIN   =  10.00;   EMAX   =-10.00  energy-range for DOS
   EFERMI =   0.00;   METHOD = LEGACY      
   ISMEAR =     1;   SIGMA  =   0.20  broadening in eV -4-tet -1-fermi 0-gaus

 Electronic relaxation 2 (details)
   IALGO  =     38    algorithm
   LDIAG  =      T    sub-space diagonalisation (order eigenvalues)
   LSUBROT=      F    optimize rotation matrix (better conditioning)
   TURBO    =      0    0=normal 1=particle mesh
   IRESTART =      0    0=no restart 2=restart with 2 vectors
   NREBOOT  =      0    no. of reboots
   NMIN     =      0    reboot dimension
   EREF     =   0.00    reference energy to select bands
   IMIX   =      4    mixing-type and parameters
     AMIX     =   0.40;   BMIX     =  1.00
     AMIX_MAG =   1.60;   BMIX_MAG =  1.00
     AMIN     =   0.10
     WC   =   100.;   INIMIX=   1;  MIXPRE=   1;  MAXMIX= -45

 Intra band minimization:
   WEIMIN = 0.0010     energy-eigenvalue tresh-hold
   EBREAK =  0.21E-05  absolut break condition
   DEPER  =   0.30     relativ break condition  

   TIME   =   0.40     timestep for ELM

  volume/ion in A,a.u.               =     250.00      1687.08
  Fermi-wavevector in a.u.,A,eV,Ry     =   0.313166  0.591797  1.334361  0.098073
  Thomas-Fermi vector in A             =   1.193276
 
 Write flags
   LWAVE        =      T    write WAVECAR
   LDOWNSAMPLE  =      F    k-point downsampling of WAVECAR
   LCHARG       =      T    write CHGCAR
   LVTOT        =      F    write LOCPOT, total local potential
   LVHAR        =      F    write LOCPOT, Hartree potential only
   LELF         =      F    write electronic localiz. function (ELF)
   LORBIT       =      0    0 simple, 1 ext, 2 COOP (PROOUT), +10 PAW based schemes


 Dipole corrections
   LMONO  =      F    monopole corrections only (constant potential shift)
   LDIPOL =      F    correct potential (dipole corrections)
   IDIPOL =      0    1-x, 2-y, 3-z, 4-all directions 
   EPSILON=  1.0000000 bulk dielectric constant

 Exchange correlation treatment:
   GGA     =    --    GGA type
   LEXCH   =     8    internal setting for exchange type
   LIBXC   =     F    Libxc                    
   VOSKOWN =     0    Vosko Wilk Nusair interpolation
   LHFCALC =     F    Hartree Fock is set to
   LHFONE  =     F    Hartree Fock one center treatment
   AEXX    =    0.0000 exact exchange contribution

 Linear response parameters
   LEPSILON=     F    determine dielectric tensor
   LRPA    =     F    only Hartree local field effects (RPA)
   LNABLA  =     F    use nabla operator in PAW spheres
   LVEL    =     F    velocity operator in full k-point grid
   CSHIFT  =0.1000    complex shift for real part using Kramers Kronig
   OMEGAMAX=  -1.0    maximum frequency
   DEG_THRESHOLD= 0.2000000E-02 threshold for treating states as degnerate
   RTIME   =   -0.100 relaxation time in fs
  (WPLASMAI=    0.000 imaginary part of plasma frequency in eV, 0.658/RTIME)
   DFIELD  = 0.0000000 0.0000000 0.0000000 field for delta impulse in time
 
  Optional k-point grid parameters
   LKPOINTS_OPT  =     F    use optional k-point grid
   KPOINTS_OPT_MODE=     1    mode for optional k-point grid
 
 Orbital magnetization related:
   ORBITALMAG=     F  switch on orbital magnetization
   LCHIMAG   =     F  perturbation theory with respect to B field
   DQ        =  0.001000  dq finite difference perturbation B field
   LLRAUG    =     F  two centre corrections for induced B field
   LBONE     =     F  B-component reconstruction in AE one-centre
   LVGVCALC  =     T  calculate vGv susceptibility
   LVGVAPPL  =     F  apply vGv susceptibility instead of pGv for G=0

 Random number generation:
   RANDOM_GENERATOR = DEFAULT
   PCG_SEED         = not used


--------------------------------------------------------------------------------------------------------


 conjugate gradient relaxation of ions
 charge density and potential will be updated during run
 spin polarized calculation
 Variant of blocked Davidson
 Davidson routine will perform the subspace rotation
 perform sub-space diagonalisation
    after iterative eigenvector-optimisation
 modified Broyden-mixing scheme, WC =      100.0
 initial mixing is a Kerker type mixing with AMIX =  0.4000 and BMIX =      1.0000
 Hartree-type preconditioning will be used
 using additional bands            8
 reciprocal scheme for non local part
 use partial core corrections
 calculate Harris-corrections to forces 
   (improved forces if not selfconsistent)
 use gradient corrections 
 use of overlap-Matrix (Vanderbilt PP)
 Methfessel and Paxton  Order N= 1 SIGMA  =   0.20


--------------------------------------------------------------------------------------------------------


  energy-cutoff  :      312.50
  volume of cell :     1000.00
      direct lattice vectors                 reciprocal lattice vectors
    10.000000000  0.000000000  0.000000000     0.100000000  0.000000000  0.000000000
     0.000000000 10.000000000  0.000000000     0.000000000  0.100000000  0.000000000
     0.000000000  0.000000000 10.000000000     0.000000000  0.000000000  0.100000000

  length of vectors
    10.000000000 10.000000000 10.000000000     0.100000000  0.100000000  0.100000000


 
 old parameters found on file WAVECAR:
  energy-cutoff  :      312.50
  volume of cell :     1000.00
      direct lattice vectors                 reciprocal lattice vectors
    10.000000000  0.000000000  0.000000000     0.100000000  0.000000000  0.000000000
     0.000000000 10.000000000  0.000000000     0.000000000  0.100000000  0.000000000
     0.000000000  0.000000000 10.000000000     0.000000000  0.000000000  0.100000000

  length of vectors

 
 k-points in units of 2pi/SCALE and weight: test case                               
   0.00000000  0.00000000  0.00000000       1.000
 
 k-points in reciprocal lattice and weights: test case                               
   0.00000000  0.00000000  0.00000000       1.000
 
 position of ions in fractional coordinates (direct lattice) 
   0.51747531  0.48984211  0.41115283
   0.49125096  0.63603169  0.42377277
   0.65032899  0.46503763  0.34769796
   0.50739982  0.42077734  0.54343828
 
 position of ions in cartesian coordinates  (Angst):
   5.17475309  4.89842107  4.11152832
   4.91250962  6.36031688  4.23772768
   6.50328987  4.65037633  3.47697965
   5.07399822  4.20777343  5.43438281
 


--------------------------------------------------------------------------------------------------------


 k-point   1 :   0.0000 0.0000 0.0000  plane waves:   12533

 maximum and minimum number of plane-waves per node :       528      518

 maximum number of plane-waves:     12533
 maximum index in each direction: 
   IXMAX=   14   IYMAX=   14   IZMAX=   14
   IXMIN=  -14   IYMIN=  -14   IZMIN=  -14


 parallel 3D FFT for wavefunctions:
    minimum data exchange during FFTs selected (reduces bandwidth)
 parallel 3D FFT for charge:
    minimum data exchange during FFTs selected (reduces bandwidth)


 total amount of memory used by VASP MPI-rank0    32330. kBytes
=======================================================================

   base      :      30000. kBytes
   nonl-proj :        101. kBytes
   fftplans  :        643. kBytes
   grid      :       1529. kBytes
   one-center:          6. kBytes
   wavefun   :         51. kBytes
 
     INWAV:  cpu time      0.3036: real time      0.3541
 Broyden mixing: mesh for mixing (old mesh)
   NGX = 29   NGY = 29   NGZ = 29
  (NGX  = 90   NGY  = 90   NGZ  = 90)
  gives a total of  24389 points

 charge density for first step will be calculated from the start-wavefunctions


--------------------------------------------------------------------------------------------------------


 Maximum index for augmentation-charges            0 (set IRDMAX)


--------------------------------------------------------------------------------------------------------


 initial charge from wavefunction
 First call to EWALD:  gamma=   0.177
 Maximum number of real-space cells 3x 3x 3
 Maximum number of reciprocal cells 3x 3x 3

    FEWALD:  cpu time      0.0075: real time      0.0075


--------------------------------------- Ionic step        1  -------------------------------------------




--------------------------------------- Iteration      1(   1)  ---------------------------------------


    POTLOK:  cpu time      0.0975: real time      0.1096
    SETDIJ:  cpu time      1.8607: real time      1.8659
     EDDAV:  cpu time      0.9625: real time      0.9741
       DOS:  cpu time      0.0137: real time      0.0138
    CHARGE:  cpu time      0.0278: real time      0.0286
    MIXING:  cpu time      0.0049: real time      0.0050
    --------------------------------------------
      LOOP:  cpu time      2.9672: real time      2.9969

 eigenvalue-minimisations  :    60
 total energy-change (2. order) :-0.1381733E+02  (-0.1609927E-04)
 number of electron       6.9999994 magnetization      -1.0000000
 augmentation part       -0.1721729 magnetization       0.0272413

 Broyden mixing:
  rms(total) = 0.92633E-03    rms(broyden)= 0.92621E-03
  rms(prec ) = 0.14265E-02
  weight for this iteration     100.00

 Free energy of the ion-electron system (eV)
  ---------------------------------------------------
  alpha Z        PSCENC =         0.11007000
  Ewald energy   TEWEN  =        34.52904838
  -Hartree energ DENC   =      -140.59478149
  -exchange      EXHF   =         0.00000000
  -V(xc)+E(xc)   XCENC  =        -1.57462721
  PAW double counting   =       495.37080363     -477.95071996
  entropy T*S    EENTRO =         0.00579791
  eigenvalues    EBANDS =       -64.13595923
  atomic energy  EATOM  =       140.42303797
  Solvation  Ediel_sol  =         0.00000000
  ---------------------------------------------------
  free energy    TOTEN  =       -13.81733001 eV

  energy without entropy =      -13.82312792  energy(sigma->0) =      -13.81926264


--------------------------------------------------------------------------------------------------------




--------------------------------------- Iteration      1(   2)  ---------------------------------------


    POTLOK:  cpu time      0.0973: real time      0.1009
    SETDIJ:  cpu time      1.8559: real time      1.8614
     EDDAV:  cpu time      0.1049: real time      0.1103
       DOS:  cpu time      0.0031: real time      0.0032
    --------------------------------------------
      LOOP:  cpu time      2.0612: real time      2.0758

 eigenvalue-minimisations  :    64
 total energy-change (2. order) : 0.4919538E-05  (-0.2213229E-05)
 number of electron       6.9999994 magnetization      -1.0000000
 augmentation part       -0.1721729 magnetization       0.0272413

 Free energy of the ion-electron system (eV)
  ---------------------------------------------------
  alpha Z        PSCENC =         0.11007000
  Ewald energy   TEWEN  =        34.52904838
  -Hartree energ DENC   =      -140.59098008
  -exchange      EXHF   =         0.00000000
  -V(xc)+E(xc)   XCENC  =        -1.57501903
  PAW double counting   =       495.40503984     -477.98483514
  entropy T*S    EENTRO =         0.00579791
  eigenvalues    EBANDS =       -64.13948494
  atomic energy  EATOM  =       140.42303797
  Solvation  Ediel_sol  =         0.00000000
  ---------------------------------------------------
  free energy    TOTEN  =       -13.81732509 eV

  energy without entropy =      -13.82312300  energy(sigma->0) =      -13.81925773


--------------------------------------------------------------------------------------------------------




 average (electrostatic) potential at core
  the test charge radii are     0.9892  0.5201
  (the norm of the test charge is              1.0000)
       1 -93.4086       2 -40.8786       3 -40.8623       4 -40.8581
 
 
 
 E-fermi :  -4.9218     XC(G=0):  -0.9148     alpha+bet : -0.3227

 Fermi energy:        -4.9218223452

 spin component 1

 k-point     1 :       0.0000    0.0000    0.0000
  band No.  band energies     occupation 
      1     -12.5649      1.00000
      2      -8.2874      1.00000
      3      -8.2696      1.00000
      4      -3.2214     -0.00000
      5      -0.3682     -0.00000
      6       0.4078     -0.00000
      7       0.4693     -0.00000
      8       0.9640      0.00000
      9       1.1647      0.00000
     10       1.1854      0.00000
     11       1.4272      0.00000
     12       1.5156      0.00000
 Fermi energy:        -4.9218223452

 spin component 2

 k-point     1 :       0.0000    0.0000    0.0000
  band No.  band energies     occupation 
      1     -13.0452      1.00000
      2      -8.4502      1.00000
      3      -8.4320      1.00000
      4      -5.0902      1.00000
      5      -0.5863     -0.00000
      6       0.0397     -0.00000
      7       0.0816     -0.00000
      8       0.5368     -0.00000
      9       1.0196      0.00000
     10       1.0698      0.00000
     11       1.1506      0.00000
     12       1.2251      0.00000


--------------------------------------------------------------------------------------------------------


 soft charge-density along one line, spin component           1
         0         1         2         3         4         5         6         7         8         9
 total charge-density along one line
 
 soft charge-density along one line, spin component           2
         0         1         2         3         4         5         6         7         8         9
 total charge-density along one line
 
 pseudopotential strength for first ion, spin component:           1
 19.576  27.319   0.003   0.004   0.004   0.005   0.007   0.008
 27.319  38.129   0.004   0.005   0.006   0.006   0.010   0.011
  0.003   0.004   4.345  -0.002  -0.002   8.105  -0.003  -0.004
  0.004   0.005  -0.002   4.343  -0.004  -0.003   8.101  -0.006
  0.004   0.006  -0.002  -0.004   4.342  -0.004  -0.006   8.099
  0.005   0.006   8.105  -0.003  -0.004  15.128  -0.006  -0.007
  0.007   0.010  -0.003   8.101  -0.006  -0.006  15.122  -0.012
  0.008   0.011  -0.004  -0.006   8.099  -0.007  -0.012  15.119
 pseudopotential strength for first ion, spin component:           2
 19.658  27.433  -0.005  -0.008  -0.010  -0.010  -0.016  -0.018
 27.433  38.289  -0.007  -0.012  -0.014  -0.014  -0.021  -0.025
 -0.005  -0.007   4.375   0.002   0.002   8.162   0.004   0.004
 -0.008  -0.012   0.002   4.377   0.004   0.004   8.165   0.007
 -0.010  -0.014   0.002   0.004   4.378   0.004   0.007   8.167
 -0.010  -0.014   8.162   0.004   0.004  15.235   0.007   0.008
 -0.016  -0.021   0.004   8.165   0.007   0.007  15.241   0.012
 -0.018  -0.025   0.004   0.007   8.167   0.008   0.012  15.245
 total augmentation occupancy for first ion, spin component:           1
  5.991  -2.249   0.502   0.737   0.896  -0.152  -0.223  -0.273
 -2.249   0.906  -0.300  -0.443  -0.537   0.071   0.103   0.127
  0.502  -0.300   3.470  -0.486  -0.556  -0.826   0.156   0.178
  0.737  -0.443  -0.486   3.019  -0.870   0.156  -0.683   0.279
  0.896  -0.537  -0.556  -0.870   2.756   0.177   0.279  -0.599
 -0.152   0.071  -0.826   0.156   0.177   0.200  -0.042  -0.048
 -0.223   0.103   0.156  -0.683   0.279  -0.042   0.161  -0.075
 -0.273   0.127   0.178   0.279  -0.599  -0.048  -0.075   0.139
 total augmentation occupancy for first ion, spin component:           2
 -0.883   0.485  -0.027  -0.041  -0.048   0.004   0.006   0.007
  0.485  -0.297   0.133   0.206   0.242  -0.019  -0.029  -0.035
 -0.027   0.133  -0.356  -0.288  -0.338   0.076   0.026   0.031
 -0.041   0.206  -0.288  -0.618  -0.525   0.026   0.100   0.047
 -0.048   0.242  -0.338  -0.525  -0.786   0.031   0.047   0.115
  0.004  -0.019   0.076   0.026   0.031  -0.019  -0.000  -0.000
  0.006  -0.029   0.026   0.100   0.047  -0.000  -0.019  -0.000
  0.007  -0.035   0.031   0.047   0.115  -0.000  -0.000  -0.019


------------------------ aborting loop because EDIFF is reached ----------------------------------------


    CHARGE:  cpu time      0.0385: real time      0.0393
    FORLOC:  cpu time      0.0006: real time      0.0006
    FORNL :  cpu time      0.0029: real time      0.0029
    STRESS:  cpu time      0.0090: real time      0.0091
    FORCOR:  cpu time      0.0742: real time      0.0760
    FORHAR:  cpu time      0.0102: real time      0.0105
    MIXING:  cpu time      0.0015: real time      0.0015
    OFIELD:  cpu time      0.0000: real time      0.0000

  FORCE on cell =-STRESS in cart. coord.  units (eV):
  Direction    XX          YY          ZZ          XY          YZ          ZX
  --------------------------------------------------------------------------------------
  Alpha Z     0.11007     0.11007     0.11007
  Ewald       3.23633    21.24750    10.04518   -13.08852   -11.42542   -20.44974
  Hartree    43.65068    50.59655    46.33312    -4.66045    -4.06687    -7.29821
  E(xc)     -21.18093   -21.20241   -21.18652     0.01575     0.01194     0.02352
  Local    -106.68685  -131.41614  -116.09414    17.58278    15.36259    27.50352
  n-local    30.16011    31.87359    30.76964    -1.30387    -1.12596    -2.02751
  augment    -5.37940    -5.50201    -5.42156     0.09503     0.08132     0.14809
  Kinetic    55.69898    53.97142    55.02178     1.30969     1.19022     2.05935
  Fock        0.00000     0.00000     0.00000     0.00000     0.00000     0.00000
  -------------------------------------------------------------------------------------
  Total      -0.39101    -0.32144    -0.42242    -0.04959     0.02782    -0.04098
  in kB      -0.62647    -0.51500    -0.67679    -0.07945     0.04458    -0.06565
  external pressure =       -0.61 kB  Pullay stress =        0.00 kB


 VOLUME and BASIS-vectors are now :
 -----------------------------------------------------------------------------
  energy-cutoff  :      312.50
  volume of cell :     1000.00
      direct lattice vectors                 reciprocal lattice vectors
    10.000000000  0.000000000  0.000000000     0.100000000  0.000000000  0.000000000
     0.000000000 10.000000000  0.000000000     0.000000000  0.100000000  0.000000000
     0.000000000  0.000000000 10.000000000     0.000000000  0.000000000  0.100000000

  length of vectors
    10.000000000 10.000000000 10.000000000     0.100000000  0.100000000  0.100000000


 FORCES acting on ions
    electron-ion (+dipol)            ewald-force                    non-local-force                 convergence-correction
 -----------------------------------------------------------------------------------------------
   0.186E+02 0.103E+02 0.155E+02   -.164E+02 -.908E+01 -.138E+02   -.218E+01 -.128E+01 -.172E+01   -.104E-01 -.151E-02 0.979E-02
   0.554E+01 -.255E+02 -.153E+01   -.611E+01 0.285E+02 0.178E+01   0.543E+00 -.295E+01 -.241E+00   -.242E-02 -.183E-02 0.264E-02
   -.227E+02 0.488E+01 0.120E+02   0.254E+02 -.540E+01 -.133E+02   -.266E+01 0.505E+00 0.129E+01   0.599E-04 -.198E-02 0.595E-03
   0.265E+01 0.127E+02 -.227E+02   -.287E+01 -.141E+02 0.253E+02   0.213E+00 0.139E+01 -.263E+01   -.152E-02 0.208E-02 -.169E-02
 -----------------------------------------------------------------------------------------------
   0.409E+01 0.234E+01 0.329E+01   -.888E-15 -.178E-14 0.000E+00   -.408E+01 -.234E+01 -.331E+01   -.143E-01 -.325E-02 0.113E-01
 
 
 POSITION                                       TOTAL-FORCE (eV/Angst)
 -----------------------------------------------------------------------------------
      5.17475      4.89842      4.11153         0.006722     -0.067923      0.009979
      4.91251      6.36032      4.23773        -0.025943      0.075629      0.016023
      6.50329      4.65038      3.47698         0.027431     -0.015836     -0.020420
      5.07400      4.20777      5.43438        -0.008210      0.008130     -0.005582
 -----------------------------------------------------------------------------------
    total drift:                                0.001376      0.000134     -0.000027


--------------------------------------------------------------------------------------------------------



  FREE ENERGIE OF THE ION-ELECTRON SYSTEM (eV)
  ---------------------------------------------------
  free  energy   TOTEN  =       -13.81732509 eV

  energy  without entropy=      -13.82312300  energy(sigma->0) =      -13.81925773
 


--------------------------------------------------------------------------------------------------------


    POTLOK:  cpu time      1.9629: real time      1.9717

 Total magnetic moment S=     1.0000000

 Fermi contact (isotropic) hyperfine coupling parameter (MHz) 
 -------------------------------------------------------------
  ion      A_pw      A_1PS     A_1AE     A_1c      A_tot
 -------------------------------------------------------------
   1      -5.260    -5.071   445.140    -3.680   444.951
   2     -12.449   -12.875   -21.138     0.000   -20.712
   3     -12.040   -12.419   -20.391     0.000   -20.012
   4     -12.664   -13.094   -21.494     0.000   -21.064
 -------------------------------------------------------------


 Dipolar hyperfine coupling parameters (MHz)
 ---------------------------------------------------------------------
  ion      A_xx      A_yy      A_zz      A_xy      A_xz      A_yz
 ---------------------------------------------------------------------
   1      41.179   -47.712     6.533    69.970   108.578    59.744
   2       1.571    -6.900     5.329     1.613    -6.057    -2.539
   3      -6.920     7.133    -0.212    -0.348     1.743    -5.678
   4       2.668     2.824    -5.492    -5.820    -2.783     4.424
 ---------------------------------------------------------------------


 Total hyperfine coupling parameters after diagonalization (MHz)
 (convention: |A_zz| > |A_xx| > |A_yy|)
 ----------------------------------------------------------------------
  ion      A_xx      A_yy      A_zz     asymmetry (A_yy - A_xx)/ A_zz 
 ----------------------------------------------------------------------
   1     358.868   358.748   617.237      -0.000
   2     -23.594   -10.396   -28.144      -0.469
   3     -22.867    -9.714   -27.455      -0.479
   4     -23.882   -10.830   -28.478      -0.458
 ---------------------------------------------------------------------



--------------------------------------------------------------------------------------------------------




--------------------------------------------------------------------------------------------------------


    WAVPRE:  cpu time      1.6639: real time      1.7364
    FEWALD:  cpu time      0.0007: real time      0.0007
    ORTHCH:  cpu time      0.0039: real time      0.0043
     LOOP+:  cpu time     10.6068: real time     10.8035


--------------------------------------- Ionic step        2  -------------------------------------------




--------------------------------------- Iteration      2(   1)  ---------------------------------------


    POTLOK:  cpu time      0.0957: real time      0.0984
    SETDIJ:  cpu time      1.8679: real time      1.8731
     EDDAV:  cpu time      0.1258: real time      0.1315
       DOS:  cpu time      0.0031: real time      0.0032
    CHARGE:  cpu time      0.0246: real time      0.0251
    MIXING:  cpu time      0.0016: real time      0.0016
    --------------------------------------------
      LOOP:  cpu time      2.1189: real time      2.1330

 eigenvalue-minimisations  :    64
 total energy-change (2. order) :-0.7768879E-04  (-0.1133386E-02)
 number of electron       6.9999995 magnetization      -1.0000000
 augmentation part       -0.1721975 magnetization       0.0272435

 Broyden mixing:
  rms(total) = 0.46932E-02    rms(broyden)= 0.46913E-02
  rms(prec ) = 0.52422E-02
  weight for this iteration     100.00

 Free energy of the ion-electron system (eV)
  ---------------------------------------------------
  alpha Z        PSCENC =         0.11007000
  Ewald energy   TEWEN  =        34.35930638
  -Hartree energ DENC   =      -140.48469618
  -exchange      EXHF   =         0.00000000
  -V(xc)+E(xc)   XCENC  =        -1.58085477
  PAW double counting   =       495.48679244     -478.06651078
  entropy T*S    EENTRO =         0.00579791
  eigenvalues    EBANDS =       -64.07035065
  atomic energy  EATOM  =       140.42303797
  Solvation  Ediel_sol  =         0.00000000
  ---------------------------------------------------
  free energy    TOTEN  =       -13.81740770 eV

  energy without entropy =      -13.82320560  energy(sigma->0) =      -13.81934033


--------------------------------------------------------------------------------------------------------




--------------------------------------- Iteration      2(   2)  ---------------------------------------


    POTLOK:  cpu time      0.1062: real time      0.1084
    SETDIJ:  cpu time      1.8534: real time      1.8620
     EDDAV:  cpu time      0.1049: real time      0.1103
       DOS:  cpu time      0.0030: real time      0.0031
    --------------------------------------------
      LOOP:  cpu time      2.0675: real time      2.0838

 eigenvalue-minimisations  :    68
 total energy-change (2. order) :-0.3090067E-04  (-0.5552192E-04)
 number of electron       6.9999995 magnetization      -1.0000000
 augmentation part       -0.1721975 magnetization       0.0272435

 Free energy of the ion-electron system (eV)
  ---------------------------------------------------
  alpha Z        PSCENC =         0.11007000
  Ewald energy   TEWEN  =        34.35930638
  -Hartree energ DENC   =      -140.46346839
  -exchange      EXHF   =         0.00000000
  -V(xc)+E(xc)   XCENC  =        -1.58263991
  PAW double counting   =       493.70623800     -476.28519651
  entropy T*S    EENTRO =         0.00579791
  eigenvalues    EBANDS =       -64.09058403
  atomic energy  EATOM  =       140.42303797
  Solvation  Ediel_sol  =         0.00000000
  ---------------------------------------------------
  free energy    TOTEN  =       -13.81743860 eV

  energy without entropy =      -13.82323650  energy(sigma->0) =      -13.81937123


--------------------------------------------------------------------------------------------------------




 average (electrostatic) potential at core
  the test charge radii are     0.9892  0.5201
  (the norm of the test charge is              1.0000)
       1 -93.4103       2 -40.8340       3 -40.8568       4 -40.8802
 
 
 
 E-fermi :  -4.9230     XC(G=0):  -0.8950     alpha+bet : -0.3227

 Fermi energy:        -4.9230494464

 spin component 1

 k-point     1 :       0.0000    0.0000    0.0000
  band No.  band energies     occupation 
      1     -12.5547      1.00000
      2      -8.2858      1.00000
      3      -8.2559      1.00000
      4      -3.2236     -0.00000
      5      -0.3611     -0.00000
      6       0.3968     -0.00000
      7       0.4825     -0.00000
      8       0.9770      0.00000
      9       1.1768      0.00000
     10       1.2125      0.00000
     11       1.4289      0.00000
     12       1.5184      0.00000
 Fermi energy:        -4.9230494464

 spin component 2

 k-point     1 :       0.0000    0.0000    0.0000
  band No.  band energies     occupation 
      1     -13.0353      1.00000
      2      -8.4489      1.00000
      3      -8.4186      1.00000
      4      -5.0914      1.00000
      5      -0.5790     -0.00000
      6       0.0332     -0.00000
      7       0.0858     -0.00000
      8       0.5371      0.00000
      9       1.0281      0.00000
     10       1.0809      0.00000
     11       1.1622      0.00000
     12       1.2378      0.00000


--------------------------------------------------------------------------------------------------------


 soft charge-density along one line, spin component           1
         0         1         2         3         4         5         6         7         8         9
 total charge-density along one line
 
 soft charge-density along one line, spin component           2
         0         1         2         3         4         5         6         7         8         9
 total charge-density along one line
 
 pseudopotential strength for first ion, spin component:           1
 19.575  27.318   0.002   0.004   0.004   0.004   0.008   0.008
 27.318  38.129   0.003   0.006   0.006   0.005   0.010   0.011
  0.002   0.003   4.344  -0.002  -0.002   8.104  -0.004  -0.004
  0.004   0.006  -0.002   4.343  -0.004  -0.004   8.101  -0.006
  0.004   0.006  -0.002  -0.004   4.342  -0.004  -0.006   8.099
  0.004   0.005   8.104  -0.004  -0.004  15.127  -0.006  -0.007
  0.008   0.010  -0.004   8.101  -0.006  -0.006  15.122  -0.012
  0.008   0.011  -0.004  -0.006   8.099  -0.007  -0.012  15.118
 pseudopotential strength for first ion, spin component:           2
 19.658  27.433  -0.006  -0.008  -0.010  -0.010  -0.015  -0.019
 27.433  38.288  -0.008  -0.011  -0.014  -0.015  -0.021  -0.026
 -0.006  -0.008   4.375   0.002   0.002   8.162   0.004   0.004
 -0.008  -0.011   0.002   4.377   0.004   0.004   8.165   0.007
 -0.010  -0.014   0.002   0.004   4.378   0.004   0.007   8.167
 -0.010  -0.015   8.162   0.004   0.004  15.235   0.007   0.008
 -0.015  -0.021   0.004   8.165   0.007   0.007  15.241   0.012
 -0.019  -0.026   0.004   0.007   8.167   0.008   0.012  15.245
 total augmentation occupancy for first ion, spin component:           1
  5.939  -2.221   0.471   0.743   0.891  -0.142  -0.224  -0.272
 -2.221   0.892  -0.284  -0.447  -0.533   0.066   0.104   0.126
  0.471  -0.284   3.436  -0.492  -0.548  -0.817   0.159   0.175
  0.743  -0.447  -0.492   3.026  -0.868   0.157  -0.685   0.278
  0.891  -0.533  -0.548  -0.868   2.744   0.176   0.278  -0.595
 -0.142   0.066  -0.817   0.157   0.176   0.197  -0.043  -0.047
 -0.224   0.104   0.159  -0.685   0.278  -0.043   0.162  -0.075
 -0.272   0.126   0.175   0.278  -0.595  -0.047  -0.075   0.137
 total augmentation occupancy for first ion, spin component:           2
 -0.881   0.483  -0.028  -0.040  -0.048   0.004   0.006   0.007
  0.483  -0.295   0.134   0.206   0.242  -0.019  -0.029  -0.035
 -0.028   0.134  -0.354  -0.287  -0.338   0.076   0.025   0.031
 -0.040   0.206  -0.287  -0.619  -0.525   0.026   0.100   0.048
 -0.048   0.242  -0.338  -0.525  -0.784   0.031   0.047   0.115
  0.004  -0.019   0.076   0.026   0.031  -0.019  -0.000  -0.000
  0.006  -0.029   0.025   0.100   0.047  -0.000  -0.019  -0.000
  0.007  -0.035   0.031   0.048   0.115  -0.000  -0.000  -0.019


------------------------ aborting loop because EDIFF is reached ----------------------------------------


    CHARGE:  cpu time      0.0248: real time      0.0253
    FORLOC:  cpu time      0.0014: real time      0.0014
    FORNL :  cpu time      0.0040: real time      0.0041
    STRESS:  cpu time      0.0087: real time      0.0087
    FORCOR:  cpu time      0.0739: real time      0.0752
    FORHAR:  cpu time      0.0103: real time      0.0105
    MIXING:  cpu time      0.0013: real time      0.0013
    OFIELD:  cpu time      0.0000: real time      0.0000

  FORCE on cell =-STRESS in cart. coord.  units (eV):
  Direction    XX          YY          ZZ          XY          YZ          ZX
  --------------------------------------------------------------------------------------
  Alpha Z     0.11007     0.11007     0.11007
  Ewald       3.20980    20.99666    10.15280   -12.98701   -11.45154   -20.47915
  Hartree    43.59136    50.56013    46.26908    -4.65265    -4.04881    -7.30577
  E(xc)     -21.17119   -21.18616   -21.17985     0.01416     0.01387     0.02296
  Local    -106.58001  -131.13520  -116.10710    17.48623    15.36432    27.54159
  n-local    30.15144    31.76523    30.80892    -1.27536    -1.15025    -2.02786
  augment    -5.37857    -5.49491    -5.42390     0.09362     0.08307     0.14798
  Kinetic    55.64304    53.90342    54.96522     1.30011     1.17906     2.07271
  Fock        0.00000     0.00000     0.00000     0.00000     0.00000     0.00000
  -------------------------------------------------------------------------------------
  Total      -0.42404    -0.48076    -0.40475    -0.02089    -0.01029    -0.02754
  in kB      -0.67939    -0.77027    -0.64848    -0.03347    -0.01648    -0.04412
  external pressure =       -0.70 kB  Pullay stress =        0.00 kB


 VOLUME and BASIS-vectors are now :
 -----------------------------------------------------------------------------
  energy-cutoff  :      312.50
  volume of cell :     1000.00
      direct lattice vectors                 reciprocal lattice vectors
    10.000000000  0.000000000  0.000000000     0.100000000  0.000000000  0.000000000
     0.000000000 10.000000000  0.000000000     0.000000000  0.100000000  0.000000000
     0.000000000  0.000000000 10.000000000     0.000000000  0.000000000  0.100000000

  length of vectors
    10.000000000 10.000000000 10.000000000     0.100000000  0.100000000  0.100000000


 FORCES acting on ions
    electron-ion (+dipol)            ewald-force                    non-local-force                 convergence-correction
 -----------------------------------------------------------------------------------------------
   0.186E+02 0.100E+02 0.156E+02   -.164E+02 -.890E+01 -.138E+02   -.215E+01 -.106E+01 -.178E+01   0.333E-02 0.137E-01 -.348E-02
   0.552E+01 -.254E+02 -.152E+01   -.606E+01 0.283E+02 0.176E+01   0.535E+00 -.291E+01 -.236E+00   0.366E-02 -.984E-02 -.115E-02
   -.227E+02 0.482E+01 0.120E+02   0.254E+02 -.534E+01 -.133E+02   -.265E+01 0.496E+00 0.129E+01   -.456E-02 0.286E-02 0.269E-02
   0.266E+01 0.126E+02 -.227E+02   -.288E+01 -.140E+02 0.254E+02   0.217E+00 0.139E+01 -.264E+01   0.797E-03 0.136E-02 -.320E-03
 -----------------------------------------------------------------------------------------------
   0.404E+01 0.208E+01 0.337E+01   -.355E-14 0.355E-14 0.000E+00   -.404E+01 -.209E+01 -.337E+01   0.322E-02 0.809E-02 -.226E-02
 
 
 POSITION                                       TOTAL-FORCE (eV/Angst)
 -----------------------------------------------------------------------------------
      5.17508      4.89514      4.11201        -0.000887      0.069867     -0.022894
      4.91126      6.36397      4.23850        -0.007582     -0.038393      0.005717
      6.50461      4.64961      3.47599         0.014236     -0.018597     -0.009477
      5.07360      4.20817      5.43411        -0.005767     -0.012877      0.026653
 -----------------------------------------------------------------------------------
    total drift:                               -0.000662      0.001171      0.000265


--------------------------------------------------------------------------------------------------------



  FREE ENERGIE OF THE ION-ELECTRON SYSTEM (eV)
  ---------------------------------------------------
  free  energy   TOTEN  =       -13.81743860 eV

  energy  without entropy=      -13.82323650  energy(sigma->0) =      -13.81937123
 
 d Force = 0.1464118E-03[-0.334E-03, 0.627E-03]  d Energy = 0.1135090E-03 0.329E-04
 d Force = 0.1697441E+00[ 0.169E+00, 0.171E+00]  d Ewald  = 0.1697420E+00 0.212E-05


--------------------------------------------------------------------------------------------------------


    POTLOK:  cpu time      1.9524: real time      1.9614

 Total magnetic moment S=     1.0000000

 Fermi contact (isotropic) hyperfine coupling parameter (MHz) 
 -------------------------------------------------------------
  ion      A_pw      A_1PS     A_1AE     A_1c      A_tot
 -------------------------------------------------------------
   1      -5.262    -5.068   446.568    -3.660   446.373
   2     -12.451   -12.848   -21.091     0.000   -20.694
   3     -12.338   -12.746   -20.925     0.000   -20.517
   4     -12.898   -13.316   -21.856     0.000   -21.439
 -------------------------------------------------------------


 Dipolar hyperfine coupling parameters (MHz)
 ---------------------------------------------------------------------
  ion      A_xx      A_yy      A_zz      A_xy      A_xz      A_yz
 ---------------------------------------------------------------------
   1      41.065   -47.552     6.487    69.991   108.500    59.757
   2       1.590    -6.899     5.309     1.629    -5.955    -2.494
   3      -6.893     7.121    -0.228    -0.372     1.770    -5.654
   4       2.653     2.851    -5.504    -5.847    -2.782     4.397
 ---------------------------------------------------------------------


 Total hyperfine coupling parameters after diagonalization (MHz)
 (convention: |A_zz| > |A_xx| > |A_yy|)
 ----------------------------------------------------------------------
  ion      A_xx      A_yy      A_zz     asymmetry (A_yy - A_xx)/ A_zz 
 ----------------------------------------------------------------------
   1     360.304   360.254   618.562      -0.000
   2     -23.478   -10.489   -28.116      -0.462
   3     -23.357   -10.248   -27.947      -0.469
   4     -24.289   -11.187   -28.840      -0.454
 ---------------------------------------------------------------------



--------------------------------------------------------------------------------------------------------


 Steepest descent step on ions:
 trial-energy change:   -0.000114  1 .order   -0.000146   -0.000627    0.000334
  (g-gl).g = 0.627E-03      g.g   = 0.627E-03  gl.gl    = 0.000E+00
 g(Force)  = 0.627E-03   g(Stress)= 0.000E+00 ortho     = 0.000E+00
 gamma     =   0.00000
 trial     =   1.00000
 opt step  =   0.65239  (harmonic =   0.65239) maximal distance =0.00238028
 next E    =   -13.817530   (d E  =  -0.00020)


--------------------------------------------------------------------------------------------------------


    WAVPRE:  cpu time      0.0070: real time      0.0188
    FEWALD:  cpu time      0.0007: real time      0.0007
    ORTHCH:  cpu time      0.0038: real time      0.0042
     LOOP+:  cpu time      8.1310: real time      8.2025


--------------------------------------- Ionic step        3  -------------------------------------------




--------------------------------------- Iteration      3(   1)  ---------------------------------------


    POTLOK:  cpu time      0.0962: real time      0.0982
    SETDIJ:  cpu time      1.8554: real time      1.8608
     EDDAV:  cpu time      0.1147: real time      0.1204
       DOS:  cpu time      0.0029: real time      0.0030
    CHARGE:  cpu time      0.0245: real time      0.0250
    MIXING:  cpu time      0.0017: real time      0.0017
    --------------------------------------------
      LOOP:  cpu time      2.0954: real time      2.1091

 eigenvalue-minimisations  :    80
 total energy-change (2. order) :-0.6495158E-04  (-0.1508947E-03)
 number of electron       6.9999995 magnetization      -1.0000000
 augmentation part       -0.1721716 magnetization       0.0272566

 Broyden mixing:
  rms(total) = 0.15391E-02    rms(broyden)= 0.15385E-02
  rms(prec ) = 0.16128E-02
  weight for this iteration     100.00

 Free energy of the ion-electron system (eV)
  ---------------------------------------------------
  alpha Z        PSCENC =         0.11007000
  Ewald energy   TEWEN  =        34.41811389
  -Hartree energ DENC   =      -140.48754792
  -exchange      EXHF   =         0.00000000
  -V(xc)+E(xc)   XCENC  =        -1.58158042
  PAW double counting   =       493.33336324     -475.91183523
  entropy T*S    EENTRO =         0.00579791
  eigenvalues    EBANDS =       -64.12689208
  atomic energy  EATOM  =       140.42303797
  Solvation  Ediel_sol  =         0.00000000
  ---------------------------------------------------
  free energy    TOTEN  =       -13.81747265 eV

  energy without entropy =      -13.82327056  energy(sigma->0) =      -13.81940529


--------------------------------------------------------------------------------------------------------




--------------------------------------- Iteration      3(   2)  ---------------------------------------


    POTLOK:  cpu time      0.0961: real time      0.0981
    SETDIJ:  cpu time      1.8549: real time      1.8605
     EDDAV:  cpu time      0.0959: real time      0.1007
       DOS:  cpu time      0.0032: real time      0.0033
    --------------------------------------------
      LOOP:  cpu time      2.0501: real time      2.0626

 eigenvalue-minimisations  :    56
 total energy-change (2. order) :-0.3179769E-04  (-0.8553522E-05)
 number of electron       6.9999995 magnetization      -1.0000000
 augmentation part       -0.1721716 magnetization       0.0272566

 Free energy of the ion-electron system (eV)
  ---------------------------------------------------
  alpha Z        PSCENC =         0.11007000
  Ewald energy   TEWEN  =        34.41811389
  -Hartree energ DENC   =      -140.48913516
  -exchange      EXHF   =         0.00000000
  -V(xc)+E(xc)   XCENC  =        -1.58144463
  PAW double counting   =       493.75209743     -476.33067202
  entropy T*S    EENTRO =         0.00579791
  eigenvalues    EBANDS =       -64.12536984
  atomic energy  EATOM  =       140.42303797
  Solvation  Ediel_sol  =         0.00000000
  ---------------------------------------------------
  free energy    TOTEN  =       -13.81750445 eV

  energy without entropy =      -13.82330235  energy(sigma->0) =      -13.81943708


--------------------------------------------------------------------------------------------------------




 average (electrostatic) potential at core
  the test charge radii are     0.9892  0.5201
  (the norm of the test charge is              1.0000)
       1 -93.4156       2 -40.8596       3 -40.8589       4 -40.8693
 
 
 
 E-fermi :  -4.9244     XC(G=0):  -0.8872     alpha+bet : -0.3227

 Fermi energy:        -4.9244378659

 spin component 1

 k-point     1 :       0.0000    0.0000    0.0000
  band No.  band energies     occupation 
      1     -12.5613      1.00000
      2      -8.2857      1.00000
      3      -8.2664      1.00000
      4      -3.2246     -0.00000
      5      -0.3555     -0.00000
      6       0.4046     -0.00000
      7       0.4771     -0.00000
      8       0.9826      0.00000
      9       1.1815      0.00000
     10       1.2114      0.00000
     11       1.4332      0.00000
     12       1.5276      0.00000
 Fermi energy:        -4.9244378659

 spin component 2

 k-point     1 :       0.0000    0.0000    0.0000
  band No.  band energies     occupation 
      1     -13.0418      1.00000
      2      -8.4486      1.00000
      3      -8.4288      1.00000
      4      -5.0928      1.00000
      5      -0.5774     -0.00000
      6       0.0344     -0.00000
      7       0.0842     -0.00000
      8       0.5393      0.00000
      9       1.0306      0.00000
     10       1.0852      0.00000
     11       1.1662      0.00000
     12       1.2376      0.00000


--------------------------------------------------------------------------------------------------------


 soft charge-density along one line, spin component           1
         0         1         2         3         4         5         6         7         8         9
 total charge-density along one line
 
 soft charge-density along one line, spin component           2
         0         1         2         3         4         5         6         7         8         9
 total charge-density along one line
 
 pseudopotential strength for first ion, spin component:           1
 19.576  27.319   0.002   0.004   0.004   0.005   0.007   0.008
 27.319  38.130   0.003   0.006   0.006   0.006   0.010   0.011
  0.002   0.003   4.344  -0.002  -0.002   8.104  -0.004  -0.004
  0.004   0.006  -0.002   4.343  -0.004  -0.004   8.101  -0.006
  0.004   0.006  -0.002  -0.004   4.342  -0.004  -0.006   8.099
  0.005   0.006   8.104  -0.004  -0.004  15.128  -0.006  -0.007
  0.007   0.010  -0.004   8.101  -0.006  -0.006  15.122  -0.012
  0.008   0.011  -0.004  -0.006   8.099  -0.007  -0.012  15.118
 pseudopotential strength for first ion, spin component:           2
 19.659  27.434  -0.005  -0.008  -0.010  -0.010  -0.015  -0.018
 27.434  38.289  -0.008  -0.011  -0.014  -0.014  -0.021  -0.026
 -0.005  -0.008   4.375   0.002   0.002   8.162   0.004   0.004
 -0.008  -0.011   0.002   4.377   0.004   0.004   8.165   0.007
 -0.010  -0.014   0.002   0.004   4.378   0.004   0.007   8.167
 -0.010  -0.014   8.162   0.004   0.004  15.235   0.007   0.008
 -0.015  -0.021   0.004   8.165   0.007   0.007  15.241   0.012
 -0.018  -0.026   0.004   0.007   8.167   0.008   0.012  15.245
 total augmentation occupancy for first ion, spin component:           1
  5.990  -2.249   0.499   0.744   0.892  -0.151  -0.225  -0.272
 -2.249   0.906  -0.301  -0.447  -0.534   0.071   0.104   0.126
  0.499  -0.301   3.454  -0.488  -0.551  -0.822   0.156   0.176
  0.744  -0.447  -0.488   3.022  -0.871   0.157  -0.684   0.279
  0.892  -0.534  -0.551  -0.871   2.751   0.176   0.279  -0.597
 -0.151   0.071  -0.822   0.157   0.176   0.199  -0.042  -0.047
 -0.225   0.104   0.156  -0.684   0.279  -0.042   0.162  -0.075
 -0.272   0.126   0.176   0.279  -0.597  -0.047  -0.075   0.138
 total augmentation occupancy for first ion, spin component:           2
 -0.884   0.486  -0.023  -0.041  -0.048   0.002   0.006   0.007
  0.486  -0.297   0.132   0.207   0.243  -0.018  -0.029  -0.035
 -0.023   0.132  -0.355  -0.288  -0.337   0.076   0.026   0.031
 -0.041   0.207  -0.288  -0.617  -0.524   0.026   0.100   0.047
 -0.048   0.243  -0.337  -0.524  -0.785   0.030   0.047   0.115
  0.002  -0.018   0.076   0.026   0.030  -0.019  -0.000  -0.000
  0.006  -0.029   0.026   0.100   0.047  -0.000  -0.019  -0.000
  0.007  -0.035   0.031   0.047   0.115  -0.000  -0.000  -0.019


------------------------ aborting loop because EDIFF is reached ----------------------------------------


    CHARGE:  cpu time      0.0248: real time      0.0254
    FORLOC:  cpu time      0.0008: real time      0.0008
    FORNL :  cpu time      0.0027: real time      0.0027
    STRESS:  cpu time      0.0089: real time      0.0089
    FORCOR:  cpu time      0.0739: real time      0.0752
    FORHAR:  cpu time      0.0109: real time      0.0111
    MIXING:  cpu time      0.0014: real time      0.0014
    OFIELD:  cpu time      0.0000: real time      0.0000

  FORCE on cell =-STRESS in cart. coord.  units (eV):
  Direction    XX          YY          ZZ          XY          YZ          ZX
  --------------------------------------------------------------------------------------
  Alpha Z     0.11007     0.11007     0.11007
  Ewald       3.21905    21.08365    10.11538   -13.02226   -11.44254   -20.46893
  Hartree    43.61627    50.58083    46.29469    -4.65656    -4.05473    -7.30323
  E(xc)     -21.17313   -21.19087   -21.18052     0.01473     0.01297     0.02324
  Local    -106.62401  -131.25300  -116.10563    17.52146    15.36090    27.52908
  n-local    30.16359    31.81467    30.80371    -1.28497    -1.14132    -2.02864
  augment    -5.38019    -5.49840    -5.42456     0.09394     0.08254     0.14812
  Kinetic    55.66960    53.93058    54.99335     1.30553     1.18270     2.06762
  Fock        0.00000     0.00000     0.00000     0.00000     0.00000     0.00000
  -------------------------------------------------------------------------------------
  Total      -0.39874    -0.42248    -0.39351    -0.02812     0.00052    -0.03274
  in kB      -0.63885    -0.67688    -0.63047    -0.04506     0.00083    -0.05245
  external pressure =       -0.65 kB  Pullay stress =        0.00 kB


 VOLUME and BASIS-vectors are now :
 -----------------------------------------------------------------------------
  energy-cutoff  :      312.50
  volume of cell :     1000.00
      direct lattice vectors                 reciprocal lattice vectors
    10.000000000  0.000000000  0.000000000     0.100000000  0.000000000  0.000000000
     0.000000000 10.000000000  0.000000000     0.000000000  0.100000000  0.000000000
     0.000000000  0.000000000 10.000000000     0.000000000  0.000000000  0.100000000

  length of vectors
    10.000000000 10.000000000 10.000000000     0.100000000  0.100000000  0.100000000


 FORCES acting on ions
    electron-ion (+dipol)            ewald-force                    non-local-force                 convergence-correction
 -----------------------------------------------------------------------------------------------
   0.186E+02 0.101E+02 0.156E+02   -.164E+02 -.896E+01 -.138E+02   -.216E+01 -.115E+01 -.176E+01   -.692E-03 -.591E-02 0.187E-02
   0.553E+01 -.255E+02 -.152E+01   -.608E+01 0.284E+02 0.177E+01   0.538E+00 -.292E+01 -.238E+00   -.709E-03 0.584E-03 0.533E-03
   -.227E+02 0.484E+01 0.120E+02   0.254E+02 -.536E+01 -.133E+02   -.265E+01 0.499E+00 0.129E+01   0.709E-03 -.140E-02 -.211E-03
   0.266E+01 0.127E+02 -.227E+02   -.288E+01 -.141E+02 0.254E+02   0.215E+00 0.139E+01 -.264E+01   -.257E-03 -.972E-03 0.448E-03
 -----------------------------------------------------------------------------------------------
   0.406E+01 0.219E+01 0.335E+01   0.222E-14 0.000E+00 -.355E-14   -.406E+01 -.218E+01 -.335E+01   -.950E-03 -.770E-02 0.264E-02
 
 
 POSITION                                       TOTAL-FORCE (eV/Angst)
 -----------------------------------------------------------------------------------
      5.17496      4.89628      4.11184         0.001708      0.023284     -0.010884
      4.91169      6.36270      4.23823        -0.012952     -0.002178      0.009331
      6.50415      4.64988      3.47634         0.018159     -0.016900     -0.013128
      5.07374      4.20803      5.43421        -0.006916     -0.004207      0.014680
 -----------------------------------------------------------------------------------
    total drift:                                0.000036      0.000038      0.000365


--------------------------------------------------------------------------------------------------------



  FREE ENERGIE OF THE ION-ELECTRON SYSTEM (eV)
  ---------------------------------------------------
  free  energy   TOTEN  =       -13.81750445 eV

  energy  without entropy=      -13.82330235  energy(sigma->0) =      -13.81943708
 
 d Force = 0.6126254E-04[ 0.643E-05, 0.116E-03]  d Energy = 0.6584860E-04-0.459E-05
 d Force =-0.5880759E-01[-0.589E-01,-0.587E-01]  d Ewald  =-0.5880751E-01-0.880E-07


--------------------------------------------------------------------------------------------------------


    POTLOK:  cpu time      1.9520: real time      1.9592

 Total magnetic moment S=     1.0000000

 Fermi contact (isotropic) hyperfine coupling parameter (MHz) 
 -------------------------------------------------------------
  ion      A_pw      A_1PS     A_1AE     A_1c      A_tot
 -------------------------------------------------------------
   1      -5.257    -5.069   446.284    -3.656   446.096
   2     -12.486   -12.888   -21.158     0.000   -20.755
   3     -12.249   -12.656   -20.779     0.000   -20.371
   4     -12.790   -13.215   -21.692     0.000   -21.267
 -------------------------------------------------------------


 Dipolar hyperfine coupling parameters (MHz)
 ---------------------------------------------------------------------
  ion      A_xx      A_yy      A_zz      A_xy      A_xz      A_yz
 ---------------------------------------------------------------------
   1      41.143   -47.698     6.555    69.869   108.553    59.680
   2       1.587    -6.902     5.316     1.620    -5.994    -2.515
   3      -6.905     7.131    -0.225    -0.364     1.766    -5.661
   4       2.660     2.843    -5.502    -5.839    -2.778     4.410
 ---------------------------------------------------------------------


 Total hyperfine coupling parameters after diagonalization (MHz)
 (convention: |A_zz| > |A_xx| > |A_yy|)
 ----------------------------------------------------------------------
  ion      A_xx      A_yy      A_zz     asymmetry (A_yy - A_xx)/ A_zz 
 ----------------------------------------------------------------------
   1     360.054   359.965   618.268      -0.000
   2     -23.574   -10.507   -28.184      -0.464
   3     -23.214   -10.089   -27.812      -0.472
   4     -24.104   -11.021   -28.677      -0.456
 ---------------------------------------------------------------------



--------------------------------------------------------------------------------------------------------




--------------------------------------------------------------------------------------------------------


  
 reached required accuracy - stopping structural energy minimisation
 writing wavefunctions
     LOOP+:  cpu time      8.2500: real time      8.3346
    4ORBIT:  cpu time      0.0000: real time      0.0000

 total amount of memory used by VASP MPI-rank0    32330. kBytes
=======================================================================

   base      :      30000. kBytes
   nonl-proj :        101. kBytes
   fftplans  :        643. kBytes
   grid      :       1529. kBytes
   one-center:          6. kBytes
   wavefun   :         51. kBytes
 
  
  
 General timing and accounting informations for this job:
 ========================================================
  
                  Total CPU time used (sec):       41.550
                            User time (sec):       11.181
                          System time (sec):       30.369
                         Elapsed time (sec):       48.277
  
                   Maximum memory used (kb):      167624.
                   Average memory used (kb):          N/A
  
                          Minor page faults:        12622
                          Major page faults:           81
                 Voluntary context switches:          895
