 vasp.6.4.1 05Apr23 (build Jan 13 2025 16:05:33) complex                        
  
 executed on             LinuxIFC date 2025.10.10  22:56:35
 running   96 mpi-ranks, on    4 nodes
 distrk:  each k-point on   96 cores,    1 groups
 distr:  one band on NCORE=  24 cores,    4 groups


--------------------------------------------------------------------------------------------------------


 INCAR:
   NCORE = 24
   SYSTEM = SiH3
   PREC = HIGH
   IBRION = 2
   NSW = 100
   ISPIN = 2
   LHYPERFINE = .TRUE.
   NGYROMAG = -8.461871 42.577478518

 POTCAR:    PAW_PBE Si 05Jan2001                  
 POTCAR:    PAW_PBE H 15Jun2001                   
 -----------------------------------------------------------------------------
|                                                                             |
|           W    W    AA    RRRRR   N    N  II  N    N   GGGG   !!!           |
|           W    W   A  A   R    R  NN   N  II  NN   N  G    G  !!!           |
|           W    W  A    A  R    R  N N  N  II  N N  N  G       !!!           |
|           W WW W  AAAAAA  RRRRR   N  N N  II  N  N N  G  GGG   !            |
|           WW  WW  A    A  R   R   N   NN  II  N   NN  G    G                |
|           W    W  A    A  R    R  N    N  II  N    N   GGGG   !!!           |
|                                                                             |
|     You use a magnetic or noncollinear calculation, but did not specify     |
|     the initial magnetic moment with the MAGMOM tag. Note that a            |
|     default of 1 will be used for all atoms. This ferromagnetic setup       |
|     may break the symmetry of the crystal, in particular it may rule        |
|     out finding an antiferromagnetic solution. Thence, we recommend         |
|     setting the initial magnetic moment manually or verifying carefully     |
|     that this magnetic setup is desired.                                    |
|                                                                             |
 -----------------------------------------------------------------------------

 -----------------------------------------------------------------------------
|                                                                             |
|           W    W    AA    RRRRR   N    N  II  N    N   GGGG   !!!           |
|           W    W   A  A   R    R  NN   N  II  NN   N  G    G  !!!           |
|           W    W  A    A  R    R  N N  N  II  N N  N  G       !!!           |
|           W WW W  AAAAAA  RRRRR   N  N N  II  N  N N  G  GGG   !            |
|           WW  WW  A    A  R   R   N   NN  II  N   NN  G    G                |
|           W    W  A    A  R    R  N    N  II  N    N   GGGG   !!!           |
|                                                                             |
|     For optimal performance we recommend to set                             |
|       NCORE = 2 up to number-of-cores-per-socket                            |
|     NCORE specifies how many cores store one orbital (NPAR=cpu/NCORE).      |
|     This setting can greatly improve the performance of VASP for DFT.       |
|     The default, NCORE=1 might be grossly inefficient on modern             |
|     multi-core architectures or massively parallel machines. Do your        |
|     own testing! More info at https://www.vasp.at/wiki/index.php/NCORE      |
|     Unfortunately you need to use the default for GW and RPA                |
|     calculations (for HF NCORE is supported but not extensively tested      |
|     yet).                                                                   |
|                                                                             |
 -----------------------------------------------------------------------------

 POTCAR:    PAW_PBE Si 05Jan2001                  
   SHA256 =  79d9987ad8750f624c4d6acb2a16d13abf6a777132adc04dc6c8399be72b42bb Si/POTCAR             
   COPYR  = (c) Copyright 05Jan2001 Georg Kresse                                                    
   COPYR  = This file is part of the software VASP. Any use, copying, and all other rights are regul
   COPYR  = If you do not have a valid VASP license, you may not use, copy or distribute this file. 
   VRHFIN =Si: s2p2                                                                                 
   LEXCH  = PE                                                                                      
   EATOM  =   103.0669 eV,    7.5752 Ry                                                             
                                                                                                    
   TITEL  = PAW_PBE Si 05Jan2001                                                                    
   LULTRA =        F    use ultrasoft PP ?                                                          
   IUNSCR =        1    unscreen: 0-lin 1-nonlin 2-no                                               
   RPACOR =    1.500    partial core radius                                                         
   POMASS =   28.085; ZVAL   =    4.000    mass and valenz                                          
   RCORE  =    1.900    outmost cutoff radius                                                       
   RWIGS  =    2.480; RWIGS  =    1.312    wigner-seitz radius (au A)                               
   ENMAX  =  245.345; ENMIN  =  184.009 eV                                                          
   ICORE  =        2    local potential                                                             
   LCOR   =        T    correct aug charges                                                         
   LPAW   =        T    paw PP                                                                      
   EAUG   =  322.069                                                                                
   DEXC   =    0.000                                                                                
   RMAX   =    1.950    core radius for proj-oper                                                   
   RAUG   =    1.300    factor for augmentation sphere                                              
   RDEP   =    1.993    radius for radial grids                                                     
   RDEPT  =    1.837    core radius for aug-charge                                                  
                                                                                                    
   Atomic configuration                                                                             
    6 entries                                                                                       
     n  l   j            E        occ.                                                              
     1  0  0.50     -1785.8828   2.0000                                                             
     2  0  0.50      -139.4969   2.0000                                                             
     2  1  1.50       -95.5546   6.0000                                                             
     3  0  0.50       -10.8127   2.0000                                                             
     3  1  0.50        -4.0811   2.0000                                                             
     3  2  1.50        -4.0817   0.0000                                                             
   Description                                                                                      
     l       E           TYP  RCUT    TYP  RCUT                                                     
     0    -10.8127223     23  1.900                                                                 
     0     -7.6451159     23  1.900                                                                 
     1     -4.0811372     23  1.900                                                                 
     1      2.4879257     23  1.900                                                                 
     2     -4.0817478      7  1.900                                                                 
  local pseudopotential read in
  partial core-charges read in
  partial kinetic energy density read in
  atomic valenz-charges read in
  non local Contribution for L=           0  read in
    real space projection operators read in
  non local Contribution for L=           0  read in
    real space projection operators read in
  non local Contribution for L=           1  read in
    real space projection operators read in
  non local Contribution for L=           1  read in
    real space projection operators read in
    PAW grid and wavefunctions read in
 
   number of l-projection  operators is LMAX  =           4
   number of lm-projection operators is LMMAX =           8
 
 POTCAR:    PAW_PBE H 15Jun2001                   
   SHA256 =  030f79b5d3ab3cf0e668861823c8fb652ff669f3e15e46930bd03bfd63a607b6 H/POTCAR              
   COPYR  = (c) Copyright 15Jun2001 Georg Kresse                                                    
   COPYR  = This file is part of the software VASP. Any use, copying, and all other rights are regul
   COPYR  = If you do not have a valid VASP license, you may not use, copy or distribute this file. 
   VRHFIN =H: ultrasoft test                                                                        
   LEXCH  = PE                                                                                      
   EATOM  =    12.4884 eV,    0.9179 Ry                                                             
                                                                                                    
   TITEL  = PAW_PBE H 15Jun2001                                                                     
   LULTRA =        F    use ultrasoft PP ?                                                          
   IUNSCR =        0    unscreen: 0-lin 1-nonlin 2-no                                               
   RPACOR =    0.000    partial core radius                                                         
   POMASS =    1.000; ZVAL   =    1.000    mass and valenz                                          
   RCORE  =    1.100    outmost cutoff radius                                                       
   RWIGS  =    0.700; RWIGS  =    0.370    wigner-seitz radius (au A)                               
   ENMAX  =  250.000; ENMIN  =  200.000 eV                                                          
   RCLOC  =    0.701    cutoff for local pot                                                        
   LCOR   =        T    correct aug charges                                                         
   LPAW   =        T    paw PP                                                                      
   EAUG   =  400.000                                                                                
   RMAX   =    1.123    core radius for proj-oper                                                   
   RAUG   =    1.200    factor for augmentation sphere                                              
   RDEP   =    1.112    radius for radial grids                                                     
   RDEPT  =    0.926    core radius for aug-charge                                                  
                                                                                                    
   Atomic configuration                                                                             
    2 entries                                                                                       
     n  l   j            E        occ.                                                              
     1  0  0.50        -6.4927   1.0000                                                             
     2  1  0.50        -3.4015   0.0000                                                             
   Description                                                                                      
     l       E           TYP  RCUT    TYP  RCUT                                                     
     0     -6.4927494     23  1.100                                                                 
     0      6.8029130     23  1.100                                                                 
     1     -4.0817478     23  1.100                                                                 
  local pseudopotential read in
  atomic valenz-charges read in
  non local Contribution for L=           0  read in
    real space projection operators read in
  non local Contribution for L=           0  read in
    real space projection operators read in
  non local Contribution for L=           1  read in
    real space projection operators read in
    PAW grid and wavefunctions read in
 
   number of l-projection  operators is LMAX  =           3
   number of lm-projection operators is LMMAX =           5
 
  PAW_PBE Si 05Jan2001                  :
 energy of atom  1       EATOM= -103.0669
 kinetic energy error for atom=    0.0017 (will be added to EATOM!!)
  PAW_PBE H 15Jun2001                   :
 energy of atom  2       EATOM=  -12.4884
 kinetic energy error for atom=    0.0358 (will be added to EATOM!!)
 
 
 POSCAR: SiH3 molecule
  positions in direct lattice
  velocities in cartesian coordinates
 exchange correlation table for  LEXCH =        8
   RHO(1)=    0.500       N(1)  =     2000
   RHO(2)=  100.500       N(2)  =     4000
 


--------------------------------------------------------------------------------------------------------


 ion  position               nearest neighbor table
   1  0.515  0.529  0.387-   2 1.51   3 1.51
   2  0.507  0.678  0.369-   1 1.51
   3  0.651  0.483  0.339-   1 1.51
   4  0.493  0.322  0.631-
 
  LATTYP: Found a simple cubic cell.
 ALAT       =    10.0000000000
  
  Lattice vectors:
  
 A1 = (  10.0000000000,   0.0000000000,   0.0000000000)
 A2 = (   0.0000000000,  10.0000000000,   0.0000000000)
 A3 = (   0.0000000000,   0.0000000000,  10.0000000000)


Analysis of symmetry for initial positions (statically):
=====================================================================
 Subroutine PRICEL returns:
 Original cell was already a primitive cell.
 

 Routine SETGRP: Setting up the symmetry group for a 
 simple cubic supercell.


 Subroutine GETGRP returns: Found  1 space group operations
 (whereof  1 operations were pure point group operations)
 out of a pool of 48 trial point group operations.


The static configuration has the point symmetry C_1 .


Analysis of symmetry for dynamics (positions and initial velocities):
=====================================================================
 Subroutine PRICEL returns:
 Original cell was already a primitive cell.
 

 Routine SETGRP: Setting up the symmetry group for a 
 simple cubic supercell.


 Subroutine GETGRP returns: Found  1 space group operations
 (whereof  1 operations were pure point group operations)
 out of a pool of 48 trial point group operations.


The dynamic configuration has the point symmetry C_1 .


Analysis of structural, dynamic, and magnetic symmetry:
=====================================================================
 Subroutine PRICEL returns:
 Original cell was already a primitive cell.
 

 Routine SETGRP: Setting up the symmetry group for a 
 simple cubic supercell.


 Subroutine GETGRP returns: Found  1 space group operations
 (whereof  1 operations were pure point group operations)
 out of a pool of 48 trial point group operations.


The overall configuration has the point symmetry C_1 .


 Subroutine INISYM returns: Found  1 space group operations
 (whereof  1 operations are pure point group operations),
 and found     1 'primitive' translations


----------------------------------------------------------------------------------------

                                     Primitive cell                                     

  volume of cell :    1000.0000

  direct lattice vectors                    reciprocal lattice vectors
    10.000000000  0.000000000  0.000000000     0.100000000  0.000000000  0.000000000
     0.000000000 10.000000000  0.000000000     0.000000000  0.100000000  0.000000000
     0.000000000  0.000000000 10.000000000     0.000000000  0.000000000  0.100000000

  length of vectors
    10.000000000 10.000000000 10.000000000     0.100000000  0.100000000  0.100000000

  position of ions in fractional coordinates (direct lattice)
     0.515291871  0.528559150  0.386955044
     0.506611261  0.678134608  0.368669885
     0.651163209  0.483129622  0.339106802
     0.493388739  0.321865392  0.631330115

  ion indices of the primitive-cell ions
   primitive index   ion index
                 1           1
                 2           2
                 3           3
                 4           4

----------------------------------------------------------------------------------------

 
 
 KPOINTS: test case                               

Automatic generation of k-mesh.
 Grid dimensions read from file:
 generate k-points for:    1    1    1

 Generating k-lattice:

  Cartesian coordinates                     Fractional coordinates (reciprocal lattice)
     0.100000000  0.000000000  0.000000000     1.000000000  0.000000000  0.000000000
     0.000000000  0.100000000  0.000000000     0.000000000  1.000000000  0.000000000
     0.000000000  0.000000000  0.100000000     0.000000000  0.000000000  1.000000000

  Length of vectors
     0.100000000  0.100000000  0.100000000

  Shift w.r.t. Gamma in fractional coordinates (k-lattice)
     0.000000000  0.000000000  0.000000000

 
 Subroutine IBZKPT returns following result:
 ===========================================
 
 Found      1 irreducible k-points:
 
 Following reciprocal coordinates:
            Coordinates               Weight
  0.000000  0.000000  0.000000      1.000000
 
 Following cartesian coordinates:
            Coordinates               Weight
  0.000000  0.000000  0.000000      1.000000
 


--------------------------------------------------------------------------------------------------------




 Dimension of arrays:
   k-points           NKPTS =      1   k-points in BZ     NKDIM =      1   number of bands    NBANDS=     12
   number of dos      NEDOS =    301   number of ions     NIONS =      4
   non local maximal  LDIM  =      4   non local SUM 2l+1 LMDIM =      8
   total plane-waves  NPLWV = 216000
   max r-space proj   IRMAX =      1   max aug-charges    IRDMAX=   3246
   dimension x,y,z NGX =    60 NGY =   60 NGZ =   60
   dimension x,y,z NGXF=    90 NGYF=   90 NGZF=   90
   support grid    NGXF=    90 NGYF=   90 NGZF=   90
   ions per type =               1   3
   NGX,Y,Z   is equivalent  to a cutoff of   9.97,  9.97,  9.97 a.u.
   NGXF,Y,Z  is equivalent  to a cutoff of  14.96, 14.96, 14.96 a.u.

 SYSTEM =  SiH3                                    
 POSCAR =  SiH3 molecule                           

 Startparameter for this run:
   NWRITE =      2    write-flag & timer
   PREC   = high      normal or accurate (medium, high low for compatibility)
   ISTART =      1    job   : 0-new  1-cont  2-samecut
   ICHARG =      0    charge: 1-file 2-atom 10-const
   ISPIN  =      2    spin polarized calculation?
   LNONCOLLINEAR =      F non collinear calculations
   LSORBIT =      F    spin-orbit coupling
   INIWAV =      1    electr: 0-lowe 1-rand  2-diag
   LASPH  =      F    aspherical Exc in radial PAW
 Electronic Relaxation 1
   ENCUT  =  312.5 eV  22.97 Ry    4.79 a.u.  14.41 14.41 14.41*2*pi/ulx,y,z
   ENINI  =  312.5     initial cutoff
   ENAUG  =  400.0 eV  augmentation charge cutoff
   NELM   =     60;   NELMIN=  2; NELMDL=  0     # of ELM steps 
   EDIFF  = 0.1E-03   stopping-criterion for ELM
   LREAL  =      F    real-space projection
   NLSPLINE    = F    spline interpolate recip. space projectors
   LCOMPAT=      F    compatible to vasp.4.4
   GGA_COMPAT  = T    GGA compatible to vasp.4.4-vasp.4.6
   LMAXPAW     = -100 max onsite density
   LMAXMIX     =    2 max onsite mixed and CHGCAR
   VOSKOWN=      0    Vosko Wilk Nusair interpolation
   ROPT   =    0.00000   0.00000
 Ionic relaxation
   EDIFFG = 0.1E-02   stopping-criterion for IOM
   NSW    =    100    number of steps for IOM
   NBLOCK =      1;   KBLOCK =    100    inner block; outer block 
   IBRION =      2    ionic relax: 0-MD 1-quasi-New 2-CG
   NFREE  =      1    steps in history (QN), initial steepest desc. (CG)
   ISIF   =      2    stress and relaxation
   IWAVPR =     11    prediction:  0-non 1-charg 2-wave 3-comb
   ISYM   =      2    0-nonsym 1-usesym 2-fastsym
   LCORR  =      T    Harris-Foulkes like correction to forces

   POTIM  = 0.5000    time-step for ionic-motion
   TEIN   =    0.0    initial temperature
   TEBEG  =    0.0;   TEEND  =   0.0 temperature during run
   SMASS  =  -3.00    Nose mass-parameter (am)
   estimated Nose-frequenzy (Omega)   =  0.10E-29 period in steps = 0.13E+47 mass=  -0.229E-26a.u.
   SCALEE = 1.0000    scale energy and forces
   NPACO  =    256;   APACO  = 10.0  distance and # of slots for P.C.
   PSTRESS=    0.0 pullay stress

  Mass of Ions in am
   POMASS =  28.09  1.00
  Ionic Valenz
   ZVAL   =   4.00  1.00
  Atomic Wigner-Seitz radii
   RWIGS  =  -1.00 -1.00
  virtual crystal weights 
   VCA    =   1.00  1.00
   NELECT =       7.0000    total number of electrons
   NUPDOWN=      -1.0000    fix difference up-down

 DOS related values:
   EMIN   =  10.00;   EMAX   =-10.00  energy-range for DOS
   EFERMI =   0.00;   METHOD = LEGACY      
   ISMEAR =     1;   SIGMA  =   0.20  broadening in eV -4-tet -1-fermi 0-gaus

 Electronic relaxation 2 (details)
   IALGO  =     38    algorithm
   LDIAG  =      T    sub-space diagonalisation (order eigenvalues)
   LSUBROT=      F    optimize rotation matrix (better conditioning)
   TURBO    =      0    0=normal 1=particle mesh
   IRESTART =      0    0=no restart 2=restart with 2 vectors
   NREBOOT  =      0    no. of reboots
   NMIN     =      0    reboot dimension
   EREF     =   0.00    reference energy to select bands
   IMIX   =      4    mixing-type and parameters
     AMIX     =   0.40;   BMIX     =  1.00
     AMIX_MAG =   1.60;   BMIX_MAG =  1.00
     AMIN     =   0.10
     WC   =   100.;   INIMIX=   1;  MIXPRE=   1;  MAXMIX= -45

 Intra band minimization:
   WEIMIN = 0.0010     energy-eigenvalue tresh-hold
   EBREAK =  0.21E-05  absolut break condition
   DEPER  =   0.30     relativ break condition  

   TIME   =   0.40     timestep for ELM

  volume/ion in A,a.u.               =     250.00      1687.08
  Fermi-wavevector in a.u.,A,eV,Ry     =   0.313166  0.591797  1.334361  0.098073
  Thomas-Fermi vector in A             =   1.193276
 
 Write flags
   LWAVE        =      T    write WAVECAR
   LDOWNSAMPLE  =      F    k-point downsampling of WAVECAR
   LCHARG       =      T    write CHGCAR
   LVTOT        =      F    write LOCPOT, total local potential
   LVHAR        =      F    write LOCPOT, Hartree potential only
   LELF         =      F    write electronic localiz. function (ELF)
   LORBIT       =      0    0 simple, 1 ext, 2 COOP (PROOUT), +10 PAW based schemes


 Dipole corrections
   LMONO  =      F    monopole corrections only (constant potential shift)
   LDIPOL =      F    correct potential (dipole corrections)
   IDIPOL =      0    1-x, 2-y, 3-z, 4-all directions 
   EPSILON=  1.0000000 bulk dielectric constant

 Exchange correlation treatment:
   GGA     =    --    GGA type
   LEXCH   =     8    internal setting for exchange type
   LIBXC   =     F    Libxc                    
   VOSKOWN =     0    Vosko Wilk Nusair interpolation
   LHFCALC =     F    Hartree Fock is set to
   LHFONE  =     F    Hartree Fock one center treatment
   AEXX    =    0.0000 exact exchange contribution

 Linear response parameters
   LEPSILON=     F    determine dielectric tensor
   LRPA    =     F    only Hartree local field effects (RPA)
   LNABLA  =     F    use nabla operator in PAW spheres
   LVEL    =     F    velocity operator in full k-point grid
   CSHIFT  =0.1000    complex shift for real part using Kramers Kronig
   OMEGAMAX=  -1.0    maximum frequency
   DEG_THRESHOLD= 0.2000000E-02 threshold for treating states as degnerate
   RTIME   =   -0.100 relaxation time in fs
  (WPLASMAI=    0.000 imaginary part of plasma frequency in eV, 0.658/RTIME)
   DFIELD  = 0.0000000 0.0000000 0.0000000 field for delta impulse in time
 
  Optional k-point grid parameters
   LKPOINTS_OPT  =     F    use optional k-point grid
   KPOINTS_OPT_MODE=     1    mode for optional k-point grid
 
 Orbital magnetization related:
   ORBITALMAG=     F  switch on orbital magnetization
   LCHIMAG   =     F  perturbation theory with respect to B field
   DQ        =  0.001000  dq finite difference perturbation B field
   LLRAUG    =     F  two centre corrections for induced B field
   LBONE     =     F  B-component reconstruction in AE one-centre
   LVGVCALC  =     T  calculate vGv susceptibility
   LVGVAPPL  =     F  apply vGv susceptibility instead of pGv for G=0

 Random number generation:
   RANDOM_GENERATOR = DEFAULT
   PCG_SEED         = not used


--------------------------------------------------------------------------------------------------------


 conjugate gradient relaxation of ions
 charge density and potential will be updated during run
 spin polarized calculation
 Variant of blocked Davidson
 Davidson routine will perform the subspace rotation
 perform sub-space diagonalisation
    after iterative eigenvector-optimisation
 modified Broyden-mixing scheme, WC =      100.0
 initial mixing is a Kerker type mixing with AMIX =  0.4000 and BMIX =      1.0000
 Hartree-type preconditioning will be used
 using additional bands            8
 reciprocal scheme for non local part
 use partial core corrections
 calculate Harris-corrections to forces 
   (improved forces if not selfconsistent)
 use gradient corrections 
 use of overlap-Matrix (Vanderbilt PP)
 Methfessel and Paxton  Order N= 1 SIGMA  =   0.20


--------------------------------------------------------------------------------------------------------


  energy-cutoff  :      312.50
  volume of cell :     1000.00
      direct lattice vectors                 reciprocal lattice vectors
    10.000000000  0.000000000  0.000000000     0.100000000  0.000000000  0.000000000
     0.000000000 10.000000000  0.000000000     0.000000000  0.100000000  0.000000000
     0.000000000  0.000000000 10.000000000     0.000000000  0.000000000  0.100000000

  length of vectors
    10.000000000 10.000000000 10.000000000     0.100000000  0.100000000  0.100000000


 
 old parameters found on file WAVECAR:
  energy-cutoff  :      312.50
  volume of cell :     1000.00
      direct lattice vectors                 reciprocal lattice vectors
    10.000000000  0.000000000  0.000000000     0.100000000  0.000000000  0.000000000
     0.000000000 10.000000000  0.000000000     0.000000000  0.100000000  0.000000000
     0.000000000  0.000000000 10.000000000     0.000000000  0.000000000  0.100000000

  length of vectors

 
 k-points in units of 2pi/SCALE and weight: test case                               
   0.00000000  0.00000000  0.00000000       1.000
 
 k-points in reciprocal lattice and weights: test case                               
   0.00000000  0.00000000  0.00000000       1.000
 
 position of ions in fractional coordinates (direct lattice) 
   0.51529187  0.52855915  0.38695504
   0.50661126  0.67813461  0.36866989
   0.65116321  0.48312962  0.33910680
   0.49338874  0.32186539  0.63133011
 
 position of ions in cartesian coordinates  (Angst):
   5.15291871  5.28559150  3.86955044
   5.06611261  6.78134608  3.68669885
   6.51163209  4.83129622  3.39106802
   4.93388739  3.21865392  6.31330115
 


--------------------------------------------------------------------------------------------------------


 k-point   1 :   0.0000 0.0000 0.0000  plane waves:   12533

 maximum and minimum number of plane-waves per node :       528      518

 maximum number of plane-waves:     12533
 maximum index in each direction: 
   IXMAX=   14   IYMAX=   14   IZMAX=   14
   IXMIN=  -14   IYMIN=  -14   IZMIN=  -14


 parallel 3D FFT for wavefunctions:
    minimum data exchange during FFTs selected (reduces bandwidth)
 parallel 3D FFT for charge:
    minimum data exchange during FFTs selected (reduces bandwidth)


 total amount of memory used by VASP MPI-rank0    32330. kBytes
=======================================================================

   base      :      30000. kBytes
   nonl-proj :        101. kBytes
   fftplans  :        643. kBytes
   grid      :       1529. kBytes
   one-center:          6. kBytes
   wavefun   :         51. kBytes
 
     INWAV:  cpu time      0.0428: real time      0.0697
 Broyden mixing: mesh for mixing (old mesh)
   NGX = 29   NGY = 29   NGZ = 29
  (NGX  = 90   NGY  = 90   NGZ  = 90)
  gives a total of  24389 points

 charge density for first step will be calculated from the start-wavefunctions


--------------------------------------------------------------------------------------------------------


 Maximum index for augmentation-charges            0 (set IRDMAX)


--------------------------------------------------------------------------------------------------------


 initial charge from wavefunction
 First call to EWALD:  gamma=   0.177
 Maximum number of real-space cells 3x 3x 3
 Maximum number of reciprocal cells 3x 3x 3

    FEWALD:  cpu time      0.0021: real time      0.0021


--------------------------------------- Ionic step        1  -------------------------------------------




--------------------------------------- Iteration      1(   1)  ---------------------------------------


    POTLOK:  cpu time      0.0794: real time      0.0883
    SETDIJ:  cpu time      2.0864: real time      2.0984
     EDDAV:  cpu time      0.0506: real time      0.0607
       DOS:  cpu time      0.0008: real time      0.0118
    CHARGE:  cpu time      0.0218: real time      0.0219
    MIXING:  cpu time      0.0022: real time      0.0047
    --------------------------------------------
      LOOP:  cpu time      2.2412: real time      2.2858

 eigenvalue-minimisations  :    72
 total energy-change (2. order) :-0.1794303E+03  (-0.2896621E+03)
 number of electron       7.0000003 magnetization       0.0250653
 augmentation part       -0.0453959 magnetization       0.0266762

 Broyden mixing:
  rms(total) = 0.20825E+01    rms(broyden)= 0.20705E+01
  rms(prec ) = 0.52643E+01
  weight for this iteration     100.00

 Free energy of the ion-electron system (eV)
  ---------------------------------------------------
  alpha Z        PSCENC =         0.11007000
  Ewald energy   TEWEN  =        10.06643412
  -Hartree energ DENC   =      -341.60218778
  -exchange      EXHF   =         0.00000000
  -V(xc)+E(xc)   XCENC  =        16.30385302
  PAW double counting   =       621.96247884     -604.56840277
  entropy T*S    EENTRO =        -0.04133677
  eigenvalues    EBANDS =       -22.08420290
  atomic energy  EATOM  =       140.42303797
  Solvation  Ediel_sol  =         0.00000000
  ---------------------------------------------------
  free energy    TOTEN  =      -179.43025628 eV

  energy without entropy =     -179.38891951  energy(sigma->0) =     -179.41647736


--------------------------------------------------------------------------------------------------------




--------------------------------------- Iteration      1(   2)  ---------------------------------------


    POTLOK:  cpu time      0.0780: real time      0.0804
    SETDIJ:  cpu time      1.8713: real time      1.8753
     EDDAV:  cpu time      0.0399: real time      0.0401
       DOS:  cpu time      0.0005: real time      0.0005
    CHARGE:  cpu time      0.0102: real time      0.0102
    MIXING:  cpu time      0.0005: real time      0.0005
    --------------------------------------------
      LOOP:  cpu time      2.0004: real time      2.0071

 eigenvalue-minimisations  :    96
 total energy-change (2. order) : 0.7373458E+02  (-0.6529572E+01)
 number of electron       7.0000005 magnetization       0.0119437
 augmentation part       -0.0544753 magnetization      -0.0026089

 Broyden mixing:
  rms(total) = 0.14617E+01    rms(broyden)= 0.14617E+01
  rms(prec ) = 0.41351E+01
  weight for this iteration     100.00

 eigenvalues of (default mixing * dielectric matrix)
  average eigenvalue GAMMA=   1.9455
  1.9455

 Free energy of the ion-electron system (eV)
  ---------------------------------------------------
  alpha Z        PSCENC =         0.11007000
  Ewald energy   TEWEN  =        10.06643412
  -Hartree energ DENC   =      -247.96841502
  -exchange      EXHF   =         0.00000000
  -V(xc)+E(xc)   XCENC  =         7.39498828
  PAW double counting   =       360.88076065     -343.12135236
  entropy T*S    EENTRO =        -0.02535343
  eigenvalues    EBANDS =       -33.45584952
  atomic energy  EATOM  =       140.42303797
  Solvation  Ediel_sol  =         0.00000000
  ---------------------------------------------------
  free energy    TOTEN  =      -105.69567932 eV

  energy without entropy =     -105.67032589  energy(sigma->0) =     -105.68722818


--------------------------------------------------------------------------------------------------------




--------------------------------------- Iteration      1(   3)  ---------------------------------------


    POTLOK:  cpu time      0.0581: real time      0.0585
    SETDIJ:  cpu time      3.2761: real time      3.2836
     EDDAV:  cpu time      0.0338: real time      0.0339
       DOS:  cpu time      0.0005: real time      0.0005
    CHARGE:  cpu time      0.0103: real time      0.0104
    MIXING:  cpu time      0.0006: real time      0.0006
    --------------------------------------------
      LOOP:  cpu time      3.3795: real time      3.3876

 eigenvalue-minimisations  :    96
 total energy-change (2. order) : 0.8322989E+02  (-0.1797116E+02)
 number of electron       7.0000007 magnetization      -0.0629073
 augmentation part       -0.3107539 magnetization       0.1111637

 Broyden mixing:
  rms(total) = 0.96620E+00    rms(broyden)= 0.96614E+00
  rms(prec ) = 0.18879E+01
  weight for this iteration     100.00

 eigenvalues of (default mixing * dielectric matrix)
  average eigenvalue GAMMA=   1.3953
  0.7433  2.0473

 Free energy of the ion-electron system (eV)
  ---------------------------------------------------
  alpha Z        PSCENC =         0.11007000
  Ewald energy   TEWEN  =        10.06643412
  -Hartree energ DENC   =      -123.34154302
  -exchange      EXHF   =         0.00000000
  -V(xc)+E(xc)   XCENC  =        -1.38582243
  PAW double counting   =       220.01423036     -201.86047155
  entropy T*S    EENTRO =        -0.05467596
  eigenvalues    EBANDS =       -66.43704667
  atomic energy  EATOM  =       140.42303797
  Solvation  Ediel_sol  =         0.00000000
  ---------------------------------------------------
  free energy    TOTEN  =       -22.46578719 eV

  energy without entropy =      -22.41111123  energy(sigma->0) =      -22.44756187


--------------------------------------------------------------------------------------------------------




--------------------------------------- Iteration      1(   4)  ---------------------------------------


    POTLOK:  cpu time      0.0559: real time      0.0564
    SETDIJ:  cpu time      2.3138: real time      2.3199
     EDDAV:  cpu time      0.0344: real time      0.0346
       DOS:  cpu time      0.0005: real time      0.0005
    CHARGE:  cpu time      0.0103: real time      0.0103
    MIXING:  cpu time      0.0007: real time      0.0007
    --------------------------------------------
      LOOP:  cpu time      2.4156: real time      2.4224

 eigenvalue-minimisations  :    64
 total energy-change (2. order) : 0.4548477E+01  (-0.3350196E+01)
 number of electron       7.0000004 magnetization      -0.4878493
 augmentation part       -0.2482146 magnetization       0.4846931

 Broyden mixing:
  rms(total) = 0.76832E+00    rms(broyden)= 0.76814E+00
  rms(prec ) = 0.13756E+01
  weight for this iteration     100.00

 eigenvalues of (default mixing * dielectric matrix)
  average eigenvalue GAMMA=   1.1065
  2.0241  0.6477  0.6477

 Free energy of the ion-electron system (eV)
  ---------------------------------------------------
  alpha Z        PSCENC =         0.11007000
  Ewald energy   TEWEN  =        10.06643412
  -Hartree energ DENC   =      -126.57508082
  -exchange      EXHF   =         0.00000000
  -V(xc)+E(xc)   XCENC  =        -1.64166278
  PAW double counting   =       401.93340447     -384.10120491
  entropy T*S    EENTRO =         0.00812313
  eigenvalues    EBANDS =       -58.14043166
  atomic energy  EATOM  =       140.42303797
  Solvation  Ediel_sol  =         0.00000000
  ---------------------------------------------------
  free energy    TOTEN  =       -17.91731050 eV

  energy without entropy =      -17.92543363  energy(sigma->0) =      -17.92001821


--------------------------------------------------------------------------------------------------------




--------------------------------------- Iteration      1(   5)  ---------------------------------------


    POTLOK:  cpu time      0.0556: real time      0.0561
    SETDIJ:  cpu time      2.1914: real time      2.1961
     EDDAV:  cpu time      0.0223: real time      0.0224
       DOS:  cpu time      0.0005: real time      0.0005
    CHARGE:  cpu time      0.0100: real time      0.0100
    MIXING:  cpu time      0.0009: real time      0.0009
    --------------------------------------------
      LOOP:  cpu time      2.2807: real time      2.2860

 eigenvalue-minimisations  :    52
 total energy-change (2. order) : 0.6523624E+01  (-0.1065706E+01)
 number of electron       7.0000004 magnetization      -0.9395086
 augmentation part       -0.2283806 magnetization       0.0016675

 Broyden mixing:
  rms(total) = 0.50021E+00    rms(broyden)= 0.50004E+00
  rms(prec ) = 0.99869E+00
  weight for this iteration     100.00

 eigenvalues of (default mixing * dielectric matrix)
  average eigenvalue GAMMA=   1.2378
  1.6122  1.2402  1.2402  0.8586

 Free energy of the ion-electron system (eV)
  ---------------------------------------------------
  alpha Z        PSCENC =         0.11007000
  Ewald energy   TEWEN  =        10.06643412
  -Hartree energ DENC   =      -125.94695826
  -exchange      EXHF   =         0.00000000
  -V(xc)+E(xc)   XCENC  =         1.37818264
  PAW double counting   =       311.83513004     -293.78402677
  entropy T*S    EENTRO =         0.01205159
  eigenvalues    EBANDS =       -55.48760777
  atomic energy  EATOM  =       140.42303797
  Solvation  Ediel_sol  =         0.00000000
  ---------------------------------------------------
  free energy    TOTEN  =       -11.39368646 eV

  energy without entropy =      -11.40573805  energy(sigma->0) =      -11.39770366


--------------------------------------------------------------------------------------------------------




--------------------------------------- Iteration      1(   6)  ---------------------------------------


    POTLOK:  cpu time      0.0556: real time      0.0560
    SETDIJ:  cpu time      2.3561: real time      2.3631
     EDDAV:  cpu time      0.0747: real time      0.0749
       DOS:  cpu time      0.0006: real time      0.0006
    CHARGE:  cpu time      0.0104: real time      0.0105
    MIXING:  cpu time      0.0008: real time      0.0008
    --------------------------------------------
      LOOP:  cpu time      2.4981: real time      2.5059

 eigenvalue-minimisations  :    56
 total energy-change (2. order) : 0.3960982E+01  (-0.3050102E+00)
 number of electron       7.0000005 magnetization      -1.0670645
 augmentation part       -0.2051699 magnetization      -0.0835346

 Broyden mixing:
  rms(total) = 0.24047E+00    rms(broyden)= 0.24045E+00
  rms(prec ) = 0.53430E+00
  weight for this iteration     100.00

 eigenvalues of (default mixing * dielectric matrix)
  average eigenvalue GAMMA=   1.3854
  2.0680  2.0680  1.0022  1.0022  0.7865

 Free energy of the ion-electron system (eV)
  ---------------------------------------------------
  alpha Z        PSCENC =         0.11007000
  Ewald energy   TEWEN  =        10.06643412
  -Hartree energ DENC   =      -126.12232132
  -exchange      EXHF   =         0.00000000
  -V(xc)+E(xc)   XCENC  =         2.54875652
  PAW double counting   =       267.80603033     -250.33175052
  entropy T*S    EENTRO =         0.00630295
  eigenvalues    EBANDS =       -51.93926485
  atomic energy  EATOM  =       140.42303797
  Solvation  Ediel_sol  =         0.00000000
  ---------------------------------------------------
  free energy    TOTEN  =        -7.43270479 eV

  energy without entropy =       -7.43900774  energy(sigma->0) =       -7.43480577


--------------------------------------------------------------------------------------------------------




--------------------------------------- Iteration      1(   7)  ---------------------------------------


    POTLOK:  cpu time      0.0556: real time      0.0561
    SETDIJ:  cpu time      2.2334: real time      2.2381
     EDDAV:  cpu time      0.0268: real time      0.0269
       DOS:  cpu time      0.0005: real time      0.0005
    CHARGE:  cpu time      0.0101: real time      0.0102
    MIXING:  cpu time      0.0008: real time      0.0008
    --------------------------------------------
      LOOP:  cpu time      2.3272: real time      2.3326

 eigenvalue-minimisations  :    72
 total energy-change (2. order) :-0.1832986E+01  (-0.4394718E-01)
 number of electron       7.0000006 magnetization      -1.0198445
 augmentation part       -0.2000000 magnetization      -0.1074174

 Broyden mixing:
  rms(total) = 0.19207E+00    rms(broyden)= 0.19206E+00
  rms(prec ) = 0.36796E+00
  weight for this iteration     100.00

 eigenvalues of (default mixing * dielectric matrix)
  average eigenvalue GAMMA=   1.4199
  2.6781  2.1563  1.1330  1.1330  0.7093  0.7093

 Free energy of the ion-electron system (eV)
  ---------------------------------------------------
  alpha Z        PSCENC =         0.11007000
  Ewald energy   TEWEN  =        10.06643412
  -Hartree energ DENC   =      -123.70580420
  -exchange      EXHF   =         0.00000000
  -V(xc)+E(xc)   XCENC  =        -0.36033385
  PAW double counting   =       276.43909526     -258.97523137
  entropy T*S    EENTRO =         0.01290217
  eigenvalues    EBANDS =       -53.27586071
  atomic energy  EATOM  =       140.42303797
  Solvation  Ediel_sol  =         0.00000000
  ---------------------------------------------------
  free energy    TOTEN  =        -9.26569060 eV

  energy without entropy =       -9.27859277  energy(sigma->0) =       -9.26999133


--------------------------------------------------------------------------------------------------------




--------------------------------------- Iteration      1(   8)  ---------------------------------------


    POTLOK:  cpu time      0.0555: real time      0.0559
    SETDIJ:  cpu time      2.1965: real time      2.2011
     EDDAV:  cpu time      0.0251: real time      0.0253
       DOS:  cpu time      0.0005: real time      0.0005
    CHARGE:  cpu time      0.0131: real time      0.0132
    MIXING:  cpu time      0.0007: real time      0.0007
    --------------------------------------------
      LOOP:  cpu time      2.2915: real time      2.2967

 eigenvalue-minimisations  :    64
 total energy-change (2. order) :-0.3641446E+00  (-0.2254668E-01)
 number of electron       7.0000005 magnetization      -0.9524490
 augmentation part       -0.2003110 magnetization      -0.0345021

 Broyden mixing:
  rms(total) = 0.10916E+00    rms(broyden)= 0.10916E+00
  rms(prec ) = 0.25228E+00
  weight for this iteration     100.00

 eigenvalues of (default mixing * dielectric matrix)
  average eigenvalue GAMMA=   1.4919
  3.2577  1.9496  1.5242  1.1956  0.9442  0.9442  0.6278

 Free energy of the ion-electron system (eV)
  ---------------------------------------------------
  alpha Z        PSCENC =         0.11007000
  Ewald energy   TEWEN  =        10.06643412
  -Hartree energ DENC   =      -121.81316572
  -exchange      EXHF   =         0.00000000
  -V(xc)+E(xc)   XCENC  =        -1.06737235
  PAW double counting   =       312.13075386     -294.70305120
  entropy T*S    EENTRO =         0.01256678
  eigenvalues    EBANDS =       -54.78910867
  atomic energy  EATOM  =       140.42303797
  Solvation  Ediel_sol  =         0.00000000
  ---------------------------------------------------
  free energy    TOTEN  =        -9.62983523 eV

  energy without entropy =       -9.64240200  energy(sigma->0) =       -9.63402415


--------------------------------------------------------------------------------------------------------




--------------------------------------- Iteration      1(   9)  ---------------------------------------


    POTLOK:  cpu time      0.0556: real time      0.0561
    SETDIJ:  cpu time      2.0366: real time      2.0409
     EDDAV:  cpu time      0.0269: real time      0.0270
       DOS:  cpu time      0.0005: real time      0.0005
    CHARGE:  cpu time      0.0115: real time      0.0116
    MIXING:  cpu time      0.0008: real time      0.0008
    --------------------------------------------
      LOOP:  cpu time      2.1319: real time      2.1369

 eigenvalue-minimisations  :    68
 total energy-change (2. order) :-0.2796106E+00  (-0.3350367E-01)
 number of electron       7.0000005 magnetization      -0.9421096
 augmentation part       -0.2001902 magnetization      -0.0281687

 Broyden mixing:
  rms(total) = 0.70375E-01    rms(broyden)= 0.70371E-01
  rms(prec ) = 0.15701E+00
  weight for this iteration     100.00

 eigenvalues of (default mixing * dielectric matrix)
  average eigenvalue GAMMA=   1.5203
  3.6651  2.3115  1.3876  1.2505  1.2505  0.8354  0.8354  0.6263

 Free energy of the ion-electron system (eV)
  ---------------------------------------------------
  alpha Z        PSCENC =         0.11007000
  Ewald energy   TEWEN  =        10.06643412
  -Hartree energ DENC   =      -119.74686727
  -exchange      EXHF   =         0.00000000
  -V(xc)+E(xc)   XCENC  =        -1.63866985
  PAW double counting   =       343.98367381     -326.52277740
  entropy T*S    EENTRO =         0.01277900
  eigenvalues    EBANDS =       -56.59712618
  atomic energy  EATOM  =       140.42303797
  Solvation  Ediel_sol  =         0.00000000
  ---------------------------------------------------
  free energy    TOTEN  =        -9.90944581 eV

  energy without entropy =       -9.92222481  energy(sigma->0) =       -9.91370547


--------------------------------------------------------------------------------------------------------




--------------------------------------- Iteration      1(  10)  ---------------------------------------


    POTLOK:  cpu time      0.0554: real time      0.0558
    SETDIJ:  cpu time      2.0681: real time      2.0724
     EDDAV:  cpu time      0.0235: real time      0.0236
       DOS:  cpu time      0.0005: real time      0.0005
    CHARGE:  cpu time      0.0110: real time      0.0111
    MIXING:  cpu time      0.0009: real time      0.0009
    --------------------------------------------
      LOOP:  cpu time      2.1593: real time      2.1642

 eigenvalue-minimisations  :    56
 total energy-change (2. order) :-0.3577600E+00  (-0.2856120E-01)
 number of electron       7.0000005 magnetization      -0.9392129
 augmentation part       -0.1986279 magnetization       0.0141000

 Broyden mixing:
  rms(total) = 0.51614E-01    rms(broyden)= 0.51610E-01
  rms(prec ) = 0.11055E+00
  weight for this iteration     100.00

 eigenvalues of (default mixing * dielectric matrix)
  average eigenvalue GAMMA=   1.5278
  3.9124  2.5568  1.5044  1.5044  1.1139  0.8908  0.8908  0.7666  0.6103

 Free energy of the ion-electron system (eV)
  ---------------------------------------------------
  alpha Z        PSCENC =         0.11007000
  Ewald energy   TEWEN  =        10.06643412
  -Hartree energ DENC   =      -119.35244474
  -exchange      EXHF   =         0.00000000
  -V(xc)+E(xc)   XCENC  =        -2.00109528
  PAW double counting   =       339.82193478     -322.36166147
  entropy T*S    EENTRO =         0.00981641
  eigenvalues    EBANDS =       -56.98329757
  atomic energy  EATOM  =       140.42303797
  Solvation  Ediel_sol  =         0.00000000
  ---------------------------------------------------
  free energy    TOTEN  =       -10.26720577 eV

  energy without entropy =      -10.27702219  energy(sigma->0) =      -10.27047791


--------------------------------------------------------------------------------------------------------




--------------------------------------- Iteration      1(  11)  ---------------------------------------


    POTLOK:  cpu time      0.0548: real time      0.0552
    SETDIJ:  cpu time      2.0983: real time      2.1049
     EDDAV:  cpu time      0.0293: real time      0.0295
       DOS:  cpu time      0.0006: real time      0.0006
    CHARGE:  cpu time      0.0101: real time      0.0102
    MIXING:  cpu time      0.0010: real time      0.0010
    --------------------------------------------
      LOOP:  cpu time      2.1941: real time      2.2014

 eigenvalue-minimisations  :    80
 total energy-change (2. order) :-0.1524243E+00  (-0.3066215E-01)
 number of electron       7.0000005 magnetization      -0.9358260
 augmentation part       -0.1969001 magnetization       0.0302803

 Broyden mixing:
  rms(total) = 0.36144E-01    rms(broyden)= 0.36140E-01
  rms(prec ) = 0.72154E-01
  weight for this iteration     100.00

 eigenvalues of (default mixing * dielectric matrix)
  average eigenvalue GAMMA=   1.6190
  4.5138  3.0172  1.5298  1.5298  1.2441  1.2441  0.9177  0.9177  0.6431  0.6330

 Free energy of the ion-electron system (eV)
  ---------------------------------------------------
  alpha Z        PSCENC =         0.11007000
  Ewald energy   TEWEN  =        10.06643412
  -Hartree energ DENC   =      -118.37361235
  -exchange      EXHF   =         0.00000000
  -V(xc)+E(xc)   XCENC  =        -2.20121168
  PAW double counting   =       336.61176309     -319.13922393
  entropy T*S    EENTRO =         0.00873673
  eigenvalues    EBANDS =       -57.92562404
  atomic energy  EATOM  =       140.42303797
  Solvation  Ediel_sol  =         0.00000000
  ---------------------------------------------------
  free energy    TOTEN  =       -10.41963010 eV

  energy without entropy =      -10.42836683  energy(sigma->0) =      -10.42254234


--------------------------------------------------------------------------------------------------------




--------------------------------------- Iteration      1(  12)  ---------------------------------------


    POTLOK:  cpu time      0.0573: real time      0.0595
    SETDIJ:  cpu time      1.8701: real time      1.8741
     EDDAV:  cpu time      0.0256: real time      0.0258
       DOS:  cpu time      0.0005: real time      0.0005
    CHARGE:  cpu time      0.0110: real time      0.0110
    MIXING:  cpu time      0.0013: real time      0.0013
    --------------------------------------------
      LOOP:  cpu time      1.9657: real time      1.9721

 eigenvalue-minimisations  :    64
 total energy-change (2. order) :-0.6758414E-01  (-0.1332980E-01)
 number of electron       7.0000005 magnetization      -0.9346209
 augmentation part       -0.1968892 magnetization       0.0123739

 Broyden mixing:
  rms(total) = 0.29412E-01    rms(broyden)= 0.29411E-01
  rms(prec ) = 0.56082E-01
  weight for this iteration     100.00

 eigenvalues of (default mixing * dielectric matrix)
  average eigenvalue GAMMA=   1.6097
  4.8011  3.2411  1.6436  1.5192  1.5192  1.2101  0.9106  0.9106  0.6697  0.6697
  0.6118

 Free energy of the ion-electron system (eV)
  ---------------------------------------------------
  alpha Z        PSCENC =         0.11007000
  Ewald energy   TEWEN  =        10.06643412
  -Hartree energ DENC   =      -117.72547809
  -exchange      EXHF   =         0.00000000
  -V(xc)+E(xc)   XCENC  =        -2.31927088
  PAW double counting   =       338.06816883     -320.58313377
  entropy T*S    EENTRO =         0.01065901
  eigenvalues    EBANDS =       -58.53770142
  atomic energy  EATOM  =       140.42303797
  Solvation  Ediel_sol  =         0.00000000
  ---------------------------------------------------
  free energy    TOTEN  =       -10.48721424 eV

  energy without entropy =      -10.49787325  energy(sigma->0) =      -10.49076724


--------------------------------------------------------------------------------------------------------




--------------------------------------- Iteration      1(  13)  ---------------------------------------


    POTLOK:  cpu time      0.0562: real time      0.0567
    SETDIJ:  cpu time      1.9009: real time      1.9048
     EDDAV:  cpu time      0.0238: real time      0.0239
       DOS:  cpu time      0.0006: real time      0.0006
    CHARGE:  cpu time      0.0116: real time      0.0116
    MIXING:  cpu time      0.0010: real time      0.0010
    --------------------------------------------
      LOOP:  cpu time      1.9941: real time      1.9987

 eigenvalue-minimisations  :    52
 total energy-change (2. order) :-0.2318602E-01  (-0.5783956E-02)
 number of electron       7.0000005 magnetization      -0.9426796
 augmentation part       -0.1976179 magnetization      -0.0018033

 Broyden mixing:
  rms(total) = 0.26987E-01    rms(broyden)= 0.26985E-01
  rms(prec ) = 0.48302E-01
  weight for this iteration     100.00

 eigenvalues of (default mixing * dielectric matrix)
  average eigenvalue GAMMA=   1.6731
  5.1136  3.5307  2.1831  1.6776  1.6776  1.0093  1.0093  0.9565  0.8423  0.8423
  0.6176  0.6176

 Free energy of the ion-electron system (eV)
  ---------------------------------------------------
  alpha Z        PSCENC =         0.11007000
  Ewald energy   TEWEN  =        10.06643412
  -Hartree energ DENC   =      -117.43363718
  -exchange      EXHF   =         0.00000000
  -V(xc)+E(xc)   XCENC  =        -2.37627559
  PAW double counting   =       333.60758101     -316.11869135
  entropy T*S    EENTRO =         0.01122262
  eigenvalues    EBANDS =       -58.80014186
  atomic energy  EATOM  =       140.42303797
  Solvation  Ediel_sol  =         0.00000000
  ---------------------------------------------------
  free energy    TOTEN  =       -10.51040026 eV

  energy without entropy =      -10.52162288  energy(sigma->0) =      -10.51414113


--------------------------------------------------------------------------------------------------------




--------------------------------------- Iteration      1(  14)  ---------------------------------------


    POTLOK:  cpu time      0.0556: real time      0.0560
    SETDIJ:  cpu time      1.9992: real time      2.0035
     EDDAV:  cpu time      0.0215: real time      0.0217
       DOS:  cpu time      0.0005: real time      0.0005
    CHARGE:  cpu time      0.0103: real time      0.0104
    MIXING:  cpu time      0.0007: real time      0.0007
    --------------------------------------------
      LOOP:  cpu time      2.0878: real time      2.0928

 eigenvalue-minimisations  :    48
 total energy-change (2. order) :-0.1171848E-02  (-0.3130706E-02)
 number of electron       7.0000005 magnetization      -0.9502127
 augmentation part       -0.1986514 magnetization      -0.0111685

 Broyden mixing:
  rms(total) = 0.17300E-01    rms(broyden)= 0.17291E-01
  rms(prec ) = 0.29381E-01
  weight for this iteration     100.00

 eigenvalues of (default mixing * dielectric matrix)
  average eigenvalue GAMMA=   1.7068
  5.6179  3.7775  2.4315  1.6823  1.6823  1.1728  1.1728  0.9556  0.8636  0.8636
  0.7099  0.6143  0.6436

 Free energy of the ion-electron system (eV)
  ---------------------------------------------------
  alpha Z        PSCENC =         0.11007000
  Ewald energy   TEWEN  =        10.06643412
  -Hartree energ DENC   =      -117.10109046
  -exchange      EXHF   =         0.00000000
  -V(xc)+E(xc)   XCENC  =        -2.41753557
  PAW double counting   =       320.34118465     -302.85413370
  entropy T*S    EENTRO =         0.01142303
  eigenvalues    EBANDS =       -59.09096213
  atomic energy  EATOM  =       140.42303797
  Solvation  Ediel_sol  =         0.00000000
  ---------------------------------------------------
  free energy    TOTEN  =       -10.51157211 eV

  energy without entropy =      -10.52299514  energy(sigma->0) =      -10.51537978


--------------------------------------------------------------------------------------------------------




--------------------------------------- Iteration      1(  15)  ---------------------------------------


    POTLOK:  cpu time      0.0556: real time      0.0560
    SETDIJ:  cpu time      1.9338: real time      1.9379
     EDDAV:  cpu time      0.0271: real time      0.0273
       DOS:  cpu time      0.0005: real time      0.0005
    CHARGE:  cpu time      0.0103: real time      0.0104
    MIXING:  cpu time      0.0008: real time      0.0008
    --------------------------------------------
      LOOP:  cpu time      2.0281: real time      2.0329

 eigenvalue-minimisations  :    72
 total energy-change (2. order) :-0.9852151E-02  (-0.9079632E-03)
 number of electron       7.0000005 magnetization      -0.9558543
 augmentation part       -0.1989857 magnetization      -0.0086864

 Broyden mixing:
  rms(total) = 0.89544E-02    rms(broyden)= 0.89476E-02
  rms(prec ) = 0.16074E-01
  weight for this iteration     100.00

 eigenvalues of (default mixing * dielectric matrix)
  average eigenvalue GAMMA=   1.7261
  6.0798  3.9123  2.5519  1.4840  1.4840  1.5122  1.5122  1.0481  0.9332  0.9332
  0.7413  0.7413  0.6157  0.6157

 Free energy of the ion-electron system (eV)
  ---------------------------------------------------
  alpha Z        PSCENC =         0.11007000
  Ewald energy   TEWEN  =        10.06643412
  -Hartree energ DENC   =      -117.03625489
  -exchange      EXHF   =         0.00000000
  -V(xc)+E(xc)   XCENC  =        -2.40904533
  PAW double counting   =       313.35803356     -295.87674657
  entropy T*S    EENTRO =         0.01074596
  eigenvalues    EBANDS =       -59.16769906
  atomic energy  EATOM  =       140.42303797
  Solvation  Ediel_sol  =         0.00000000
  ---------------------------------------------------
  free energy    TOTEN  =       -10.52142426 eV

  energy without entropy =      -10.53217022  energy(sigma->0) =      -10.52500624


--------------------------------------------------------------------------------------------------------




--------------------------------------- Iteration      1(  16)  ---------------------------------------


    POTLOK:  cpu time      0.0563: real time      0.0571
    SETDIJ:  cpu time      1.9657: real time      1.9699
     EDDAV:  cpu time      0.0232: real time      0.0234
       DOS:  cpu time      0.0005: real time      0.0005
    CHARGE:  cpu time      0.0104: real time      0.0104
    MIXING:  cpu time      0.0009: real time      0.0009
    --------------------------------------------
      LOOP:  cpu time      2.0571: real time      2.0622

 eigenvalue-minimisations  :    56
 total energy-change (2. order) :-0.6807764E-02  (-0.3733872E-03)
 number of electron       7.0000005 magnetization      -0.9573245
 augmentation part       -0.1986977 magnetization      -0.0111006

 Broyden mixing:
  rms(total) = 0.61030E-02    rms(broyden)= 0.61025E-02
  rms(prec ) = 0.11413E-01
  weight for this iteration     100.00

 eigenvalues of (default mixing * dielectric matrix)
  average eigenvalue GAMMA=   1.7686
  6.5423  4.1792  2.5012  1.7773  1.7773  1.5847  1.3560  1.3560  0.9536  0.9536
  0.8294  0.8294  0.6476  0.6209  0.6209

 Free energy of the ion-electron system (eV)
  ---------------------------------------------------
  alpha Z        PSCENC =         0.11007000
  Ewald energy   TEWEN  =        10.06643412
  -Hartree energ DENC   =      -116.97527708
  -exchange      EXHF   =         0.00000000
  -V(xc)+E(xc)   XCENC  =        -2.40714842
  PAW double counting   =       312.50155530     -295.02241571
  entropy T*S    EENTRO =         0.01081730
  eigenvalues    EBANDS =       -59.23530550
  atomic energy  EATOM  =       140.42303797
  Solvation  Ediel_sol  =         0.00000000
  ---------------------------------------------------
  free energy    TOTEN  =       -10.52823202 eV

  energy without entropy =      -10.53904932  energy(sigma->0) =      -10.53183779


--------------------------------------------------------------------------------------------------------




--------------------------------------- Iteration      1(  17)  ---------------------------------------


    POTLOK:  cpu time      0.0559: real time      0.0563
    SETDIJ:  cpu time      1.9330: real time      1.9371
     EDDAV:  cpu time      0.0219: real time      0.0220
       DOS:  cpu time      0.0005: real time      0.0005
    CHARGE:  cpu time      0.0105: real time      0.0106
    MIXING:  cpu time      0.0011: real time      0.0011
    --------------------------------------------
      LOOP:  cpu time      2.0229: real time      2.0276

 eigenvalue-minimisations  :    48
 total energy-change (2. order) :-0.4056558E-02  (-0.1995070E-03)
 number of electron       7.0000005 magnetization      -0.9558815
 augmentation part       -0.1984205 magnetization      -0.0121046

 Broyden mixing:
  rms(total) = 0.34773E-02    rms(broyden)= 0.34764E-02
  rms(prec ) = 0.69434E-02
  weight for this iteration     100.00

 eigenvalues of (default mixing * dielectric matrix)
  average eigenvalue GAMMA=   1.7941
  6.9054  4.4469  2.3326  2.3326  1.7889  1.7889  1.3731  1.3731  1.0237  1.0237
  0.8466  0.8466  0.7435  0.6405  0.6193  0.6193

 Free energy of the ion-electron system (eV)
  ---------------------------------------------------
  alpha Z        PSCENC =         0.11007000
  Ewald energy   TEWEN  =        10.06643412
  -Hartree energ DENC   =      -116.89415929
  -exchange      EXHF   =         0.00000000
  -V(xc)+E(xc)   XCENC  =        -2.41393922
  PAW double counting   =       313.56575623     -296.08688269
  entropy T*S    EENTRO =         0.01101916
  eigenvalues    EBANDS =       -59.31362486
  atomic energy  EATOM  =       140.42303797
  Solvation  Ediel_sol  =         0.00000000
  ---------------------------------------------------
  free energy    TOTEN  =       -10.53228858 eV

  energy without entropy =      -10.54330774  energy(sigma->0) =      -10.53596163


--------------------------------------------------------------------------------------------------------




--------------------------------------- Iteration      1(  18)  ---------------------------------------


    POTLOK:  cpu time      0.0544: real time      0.0549
    SETDIJ:  cpu time      1.9935: real time      1.9991
     EDDAV:  cpu time      0.0256: real time      0.0258
       DOS:  cpu time      0.0005: real time      0.0005
    CHARGE:  cpu time      0.0108: real time      0.0108
    MIXING:  cpu time      0.0012: real time      0.0012
    --------------------------------------------
      LOOP:  cpu time      2.0860: real time      2.0922

 eigenvalue-minimisations  :    64
 total energy-change (2. order) :-0.1592400E-02  (-0.3989086E-04)
 number of electron       7.0000005 magnetization      -0.9555113
 augmentation part       -0.1983713 magnetization      -0.0104682

 Broyden mixing:
  rms(total) = 0.23734E-02    rms(broyden)= 0.23733E-02
  rms(prec ) = 0.50089E-02
  weight for this iteration     100.00

 eigenvalues of (default mixing * dielectric matrix)
  average eigenvalue GAMMA=   1.7790
  6.9958  4.4886  2.4739  2.4739  1.8585  1.8585  1.3927  1.3927  1.1009  1.1009
  0.8798  0.8798  0.7388  0.7388  0.6279  0.6279  0.6138

 Free energy of the ion-electron system (eV)
  ---------------------------------------------------
  alpha Z        PSCENC =         0.11007000
  Ewald energy   TEWEN  =        10.06643412
  -Hartree energ DENC   =      -116.86508957
  -exchange      EXHF   =         0.00000000
  -V(xc)+E(xc)   XCENC  =        -2.41758269
  PAW double counting   =       314.40945877     -296.93040260
  entropy T*S    EENTRO =         0.01091479
  eigenvalues    EBANDS =       -59.34072176
  atomic energy  EATOM  =       140.42303797
  Solvation  Ediel_sol  =         0.00000000
  ---------------------------------------------------
  free energy    TOTEN  =       -10.53388098 eV

  energy without entropy =      -10.54479577  energy(sigma->0) =      -10.53751924


--------------------------------------------------------------------------------------------------------




--------------------------------------- Iteration      1(  19)  ---------------------------------------


    POTLOK:  cpu time      0.0560: real time      0.0564
    SETDIJ:  cpu time      1.9667: real time      1.9709
     EDDAV:  cpu time      0.0230: real time      0.0231
       DOS:  cpu time      0.0005: real time      0.0005
    CHARGE:  cpu time      0.0108: real time      0.0108
    MIXING:  cpu time      0.0011: real time      0.0011
    --------------------------------------------
      LOOP:  cpu time      2.0581: real time      2.0628

 eigenvalue-minimisations  :    52
 total energy-change (2. order) :-0.1704031E-02  (-0.3318409E-04)
 number of electron       7.0000005 magnetization      -0.9551097
 augmentation part       -0.1984138 magnetization      -0.0106044

 Broyden mixing:
  rms(total) = 0.15752E-02    rms(broyden)= 0.15752E-02
  rms(prec ) = 0.33011E-02
  weight for this iteration     100.00

 eigenvalues of (default mixing * dielectric matrix)
  average eigenvalue GAMMA=   1.8130
  7.1605  4.7342  3.2629  2.2526  1.7776  1.7776  1.4387  1.4387  1.3570  1.3570
  0.9451  0.9451  0.8177  0.8177  0.6586  0.6586  0.6172  0.6172

 Free energy of the ion-electron system (eV)
  ---------------------------------------------------
  alpha Z        PSCENC =         0.11007000
  Ewald energy   TEWEN  =        10.06643412
  -Hartree energ DENC   =      -116.81824555
  -exchange      EXHF   =         0.00000000
  -V(xc)+E(xc)   XCENC  =        -2.42225155
  PAW double counting   =       315.31327520     -297.83353322
  entropy T*S    EENTRO =         0.01096529
  eigenvalues    EBANDS =       -59.38533727
  atomic energy  EATOM  =       140.42303797
  Solvation  Ediel_sol  =         0.00000000
  ---------------------------------------------------
  free energy    TOTEN  =       -10.53558501 eV

  energy without entropy =      -10.54655030  energy(sigma->0) =      -10.53924011


--------------------------------------------------------------------------------------------------------




--------------------------------------- Iteration      1(  20)  ---------------------------------------


    POTLOK:  cpu time      0.0549: real time      0.0554
    SETDIJ:  cpu time      1.9671: real time      1.9713
     EDDAV:  cpu time      0.0248: real time      0.0249
       DOS:  cpu time      0.0005: real time      0.0005
    CHARGE:  cpu time      0.0104: real time      0.0104
    MIXING:  cpu time      0.0011: real time      0.0011
    --------------------------------------------
      LOOP:  cpu time      2.0588: real time      2.0635

 eigenvalue-minimisations  :    64
 total energy-change (2. order) :-0.6351152E-03  (-0.1613468E-04)
 number of electron       7.0000005 magnetization      -0.9551328
 augmentation part       -0.1985080 magnetization      -0.0107571

 Broyden mixing:
  rms(total) = 0.96338E-03    rms(broyden)= 0.96309E-03
  rms(prec ) = 0.19681E-02
  weight for this iteration     100.00

 eigenvalues of (default mixing * dielectric matrix)
  average eigenvalue GAMMA=   1.8315
  7.4239  5.0486  3.7768  2.2474  1.7351  1.7351  1.8312  1.3972  1.3972  1.0851
  1.0851  0.8967  0.8967  0.8973  0.8016  0.6715  0.6272  0.6272  0.6179

 Free energy of the ion-electron system (eV)
  ---------------------------------------------------
  alpha Z        PSCENC =         0.11007000
  Ewald energy   TEWEN  =        10.06643412
  -Hartree energ DENC   =      -116.77628104
  -exchange      EXHF   =         0.00000000
  -V(xc)+E(xc)   XCENC  =        -2.42572894
  PAW double counting   =       315.52992930     -298.04967550
  entropy T*S    EENTRO =         0.01097756
  eigenvalues    EBANDS =       -59.42498360
  atomic energy  EATOM  =       140.42303797
  Solvation  Ediel_sol  =         0.00000000
  ---------------------------------------------------
  free energy    TOTEN  =       -10.53622013 eV

  energy without entropy =      -10.54719769  energy(sigma->0) =      -10.53987931


--------------------------------------------------------------------------------------------------------




--------------------------------------- Iteration      1(  21)  ---------------------------------------


    POTLOK:  cpu time      0.0561: real time      0.0565
    SETDIJ:  cpu time      1.9654: real time      1.9697
     EDDAV:  cpu time      0.0220: real time      0.0221
       DOS:  cpu time      0.0005: real time      0.0005
    CHARGE:  cpu time      0.0106: real time      0.0106
    MIXING:  cpu time      0.0011: real time      0.0012
    --------------------------------------------
      LOOP:  cpu time      2.0557: real time      2.0606

 eigenvalue-minimisations  :    52
 total energy-change (2. order) :-0.2724444E-03  (-0.4042029E-05)
 number of electron       7.0000005 magnetization      -0.9555278
 augmentation part       -0.1985541 magnetization      -0.0110886

 Broyden mixing:
  rms(total) = 0.57567E-03    rms(broyden)= 0.57513E-03
  rms(prec ) = 0.12889E-02
  weight for this iteration     100.00

 eigenvalues of (default mixing * dielectric matrix)
  average eigenvalue GAMMA=   1.8335
  7.6216  5.2279  3.9370  2.4052  1.7605  1.7605  1.5522  1.5522  1.4005  1.4005
  1.0396  1.0396  0.9045  0.9045  0.8127  0.8127  0.6694  0.6264  0.6264  0.6161

 Free energy of the ion-electron system (eV)
  ---------------------------------------------------
  alpha Z        PSCENC =         0.11007000
  Ewald energy   TEWEN  =        10.06643412
  -Hartree energ DENC   =      -116.76826494
  -exchange      EXHF   =         0.00000000
  -V(xc)+E(xc)   XCENC  =        -2.42595726
  PAW double counting   =       315.23013094     -297.74987691
  entropy T*S    EENTRO =         0.01097148
  eigenvalues    EBANDS =       -59.43303797
  atomic energy  EATOM  =       140.42303797
  Solvation  Ediel_sol  =         0.00000000
  ---------------------------------------------------
  free energy    TOTEN  =       -10.53649257 eV

  energy without entropy =      -10.54746405  energy(sigma->0) =      -10.54014973


--------------------------------------------------------------------------------------------------------




--------------------------------------- Iteration      1(  22)  ---------------------------------------


    POTLOK:  cpu time      0.0542: real time      0.0546
    SETDIJ:  cpu time      1.9660: real time      1.9702
     EDDAV:  cpu time      0.0234: real time      0.0236
       DOS:  cpu time      0.0005: real time      0.0005
    CHARGE:  cpu time      0.0106: real time      0.0106
    MIXING:  cpu time      0.0013: real time      0.0013
    --------------------------------------------
      LOOP:  cpu time      2.0560: real time      2.0608

 eigenvalue-minimisations  :    56
 total energy-change (2. order) :-0.3551184E-03  (-0.3496355E-05)
 number of electron       7.0000005 magnetization      -0.9555031
 augmentation part       -0.1985560 magnetization      -0.0112926

 Broyden mixing:
  rms(total) = 0.39010E-03    rms(broyden)= 0.38992E-03
  rms(prec ) = 0.80886E-03
  weight for this iteration     100.00

 eigenvalues of (default mixing * dielectric matrix)
  average eigenvalue GAMMA=   1.8763
  7.7590  5.4710  4.1426  2.6917  2.1036  2.1036  1.7309  1.7309  1.3750  1.3750
  1.1166  1.1166  0.9131  0.9131  0.8085  0.8085  0.7099  0.6691  0.6248  0.6248
  0.6149

 Free energy of the ion-electron system (eV)
  ---------------------------------------------------
  alpha Z        PSCENC =         0.11007000
  Ewald energy   TEWEN  =        10.06643412
  -Hartree energ DENC   =      -116.76861080
  -exchange      EXHF   =         0.00000000
  -V(xc)+E(xc)   XCENC  =        -2.42627398
  PAW double counting   =       314.89014178     -297.40999501
  entropy T*S    EENTRO =         0.01099107
  eigenvalues    EBANDS =       -59.43264283
  atomic energy  EATOM  =       140.42303797
  Solvation  Ediel_sol  =         0.00000000
  ---------------------------------------------------
  free energy    TOTEN  =       -10.53684769 eV

  energy without entropy =      -10.54783875  energy(sigma->0) =      -10.54051138


--------------------------------------------------------------------------------------------------------




--------------------------------------- Iteration      1(  23)  ---------------------------------------


    POTLOK:  cpu time      0.0548: real time      0.0552
    SETDIJ:  cpu time      1.9660: real time      1.9702
     EDDAV:  cpu time      0.0228: real time      0.0229
       DOS:  cpu time      0.0005: real time      0.0005
    CHARGE:  cpu time      0.0106: real time      0.0106
    MIXING:  cpu time      0.0013: real time      0.0013
    --------------------------------------------
      LOOP:  cpu time      2.0560: real time      2.0607

 eigenvalue-minimisations  :    56
 total energy-change (2. order) :-0.1593542E-03  (-0.1292095E-05)
 number of electron       7.0000005 magnetization      -0.9553762
 augmentation part       -0.1985486 magnetization      -0.0110459

 Broyden mixing:
  rms(total) = 0.26449E-03    rms(broyden)= 0.26447E-03
  rms(prec ) = 0.50246E-03
  weight for this iteration     100.00

 eigenvalues of (default mixing * dielectric matrix)
  average eigenvalue GAMMA=   1.8861
  7.8954  5.6190  4.4104  2.9745  2.1155  2.1155  1.7843  1.7843  1.4132  1.4132
  1.2008  1.2008  0.9543  0.9543  0.8420  0.8420  0.7325  0.7325  0.6347  0.6347
  0.6201  0.6201

 Free energy of the ion-electron system (eV)
  ---------------------------------------------------
  alpha Z        PSCENC =         0.11007000
  Ewald energy   TEWEN  =        10.06643412
  -Hartree energ DENC   =      -116.76900638
  -exchange      EXHF   =         0.00000000
  -V(xc)+E(xc)   XCENC  =        -2.42658252
  PAW double counting   =       314.82684724     -297.34672525
  entropy T*S    EENTRO =         0.01098119
  eigenvalues    EBANDS =       -59.43206341
  atomic energy  EATOM  =       140.42303797
  Solvation  Ediel_sol  =         0.00000000
  ---------------------------------------------------
  free energy    TOTEN  =       -10.53700704 eV

  energy without entropy =      -10.54798823  energy(sigma->0) =      -10.54066744


--------------------------------------------------------------------------------------------------------




--------------------------------------- Iteration      1(  24)  ---------------------------------------


    POTLOK:  cpu time      0.0558: real time      0.0562
    SETDIJ:  cpu time      1.9655: real time      1.9697
     EDDAV:  cpu time      0.0253: real time      0.0254
       DOS:  cpu time      0.0006: real time      0.0006
    --------------------------------------------
      LOOP:  cpu time      2.0471: real time      2.0520

 eigenvalue-minimisations  :    64
 total energy-change (2. order) :-0.8508081E-04  (-0.9247498E-06)
 number of electron       7.0000005 magnetization      -0.9553762
 augmentation part       -0.1985486 magnetization      -0.0110459

 Free energy of the ion-electron system (eV)
  ---------------------------------------------------
  alpha Z        PSCENC =         0.11007000
  Ewald energy   TEWEN  =        10.06643412
  -Hartree energ DENC   =      -116.76447205
  -exchange      EXHF   =         0.00000000
  -V(xc)+E(xc)   XCENC  =        -2.42703168
  PAW double counting   =       314.86699636     -297.38681519
  entropy T*S    EENTRO =         0.01098449
  eigenvalues    EBANDS =       -59.43629614
  atomic energy  EATOM  =       140.42303797
  Solvation  Ediel_sol  =         0.00000000
  ---------------------------------------------------
  free energy    TOTEN  =       -10.53709212 eV

  energy without entropy =      -10.54807661  energy(sigma->0) =      -10.54075362


--------------------------------------------------------------------------------------------------------




 average (electrostatic) potential at core
  the test charge radii are     0.9892  0.5201
  (the norm of the test charge is              1.0000)
       1 -93.8678       2 -40.7816       3 -40.7146       4 -39.7903
 
 
 
 E-fermi :  -5.1351     XC(G=0):  -1.0668     alpha+bet : -0.3227

 Fermi energy:        -5.1350951187

 spin component 1

 k-point     1 :       0.0000    0.0000    0.0000
  band No.  band energies     occupation 
      1     -12.4021      1.00000
      2      -8.3745      1.00000
      3      -5.4584      1.02230
      4      -3.6208     -0.00000
      5      -2.3415     -0.00000
      6      -0.2643     -0.00000
      7       0.3658      0.00000
      8       0.5259      0.00000
      9       1.0932      0.00000
     10       1.1852      0.00000
     11       1.2831      0.00000
     12       1.4275      0.00000
 Fermi energy:        -5.1350951187

 spin component 2

 k-point     1 :       0.0000    0.0000    0.0000
  band No.  band energies     occupation 
      1     -12.4226      1.00000
      2      -8.3864      1.00000
      3      -7.1022      1.00000
      4      -5.2861      0.97770
      5      -3.5515     -0.00000
      6      -0.4447     -0.00000
      7       0.1996     -0.00000
      8       0.4108      0.00000
      9       0.8913      0.00000
     10       1.0222      0.00000
     11       1.0535      0.00000
     12       1.1554      0.00000


--------------------------------------------------------------------------------------------------------


 soft charge-density along one line, spin component           1
         0         1         2         3         4         5         6         7         8         9
 total charge-density along one line
 
 soft charge-density along one line, spin component           2
         0         1         2         3         4         5         6         7         8         9
 total charge-density along one line
 
 pseudopotential strength for first ion, spin component:           1
 19.647  27.418   0.011   0.006   0.015   0.021   0.011   0.028
 27.418  38.268   0.015   0.008   0.021   0.029   0.015   0.040
  0.011   0.015   4.354   0.000  -0.002   8.124   0.000  -0.004
  0.006   0.008   0.000   4.366   0.002   0.000   8.145   0.004
  0.015   0.021  -0.002   0.002   4.353  -0.004   0.004   8.121
  0.021   0.029   8.124   0.000  -0.004  15.165   0.000  -0.008
  0.011   0.015   0.000   8.145   0.004   0.000  15.205   0.007
  0.028   0.040  -0.004   0.004   8.121  -0.008   0.007  15.161
 pseudopotential strength for first ion, spin component:           2
 19.651  27.424   0.008  -0.014   0.007   0.015  -0.025   0.013
 27.424  38.277   0.011  -0.019   0.009   0.021  -0.035   0.018
  0.008   0.011   4.357   0.004   0.000   8.128   0.007   0.000
 -0.014  -0.019   0.004   4.363   0.006   0.007   8.140   0.012
  0.007   0.009   0.000   0.006   4.359   0.000   0.012   8.132
  0.015   0.021   8.128   0.007   0.000  15.174   0.014   0.000
 -0.025  -0.035   0.007   8.140   0.012   0.014  15.195   0.022
  0.013   0.018   0.000   0.012   8.132   0.000   0.022  15.181
 total augmentation occupancy for first ion, spin component:           1
  4.581  -1.562   1.064  -0.657   1.285  -0.281   0.180  -0.340
 -1.562   0.778  -0.780   0.464  -0.948   0.156  -0.097   0.189
  1.064  -0.780   3.206  -0.215  -0.490  -0.701   0.022   0.189
 -0.657   0.464  -0.215   0.683  -0.886   0.023  -0.106   0.182
  1.285  -0.948  -0.490  -0.886   2.709   0.189   0.182  -0.547
 -0.281   0.156  -0.701   0.023   0.189   0.158  -0.001  -0.054
  0.180  -0.097   0.022  -0.106   0.182  -0.001   0.019  -0.039
[...]
   0.260E+01 0.126E+02 -.227E+02   -.282E+01 -.140E+02 0.253E+02   0.207E+00 0.138E+01 -.262E+01   0.191E-02 -.561E-02 0.356E-02
 -----------------------------------------------------------------------------------------------
   0.415E+01 0.227E+01 0.329E+01   -.355E-14 0.355E-14 -.355E-14   -.417E+01 -.228E+01 -.327E+01   0.247E-01 0.696E-02 -.190E-01
 
 
 POSITION                                       TOTAL-FORCE (eV/Angst)
 -----------------------------------------------------------------------------------
      5.17286      4.89563      4.11056        -0.008372     -0.005143      0.046700
      4.91512      6.36186      4.23597        -0.030408      0.017442      0.017930
      6.50204      4.65328      3.47810         0.048077     -0.034982     -0.033297
      5.07453      4.20612      5.43598        -0.009297      0.022683     -0.031333
 -----------------------------------------------------------------------------------
    total drift:                                0.001343     -0.000801      0.000942


--------------------------------------------------------------------------------------------------------



  FREE ENERGIE OF THE ION-ELECTRON SYSTEM (eV)
  ---------------------------------------------------
  free  energy   TOTEN  =       -13.81699635 eV

  energy  without entropy=      -13.82279425  energy(sigma->0) =      -13.81892898
 
 d Force = 0.6585611E-03[ 0.425E-03, 0.892E-03]  d Energy = 0.5976146E-03 0.609E-04
 d Force =-0.1041685E+00[-0.104E+00,-0.105E+00]  d Ewald  =-0.1041689E+00 0.377E-06


--------------------------------------------------------------------------------------------------------


    POTLOK:  cpu time      2.7013: real time      2.7098

 Total magnetic moment S=     1.0000000

 Fermi contact (isotropic) hyperfine coupling parameter (MHz) 
 -------------------------------------------------------------
  ion      A_pw      A_1PS     A_1AE     A_1c      A_tot
 -------------------------------------------------------------
   1      -5.239    -5.071   451.941    -3.581   451.773
   2     -12.889   -13.344   -21.902     0.000   -21.447
   3     -12.484   -12.936   -21.236     0.000   -20.784
   4     -13.456   -13.940   -22.873     0.000   -22.389
 -------------------------------------------------------------


 Dipolar hyperfine coupling parameters (MHz)
 ---------------------------------------------------------------------
  ion      A_xx      A_yy      A_zz      A_xy      A_xz      A_yz
 ---------------------------------------------------------------------
   1      41.172   -47.665     6.493    69.769   108.388    59.570
   2       1.595    -6.918     5.323     1.587    -5.990    -2.476
   3      -6.912     7.132    -0.220    -0.388     1.774    -5.646
   4       2.669     2.813    -5.482    -5.783    -2.752     4.428
 ---------------------------------------------------------------------


 Total hyperfine coupling parameters after diagonalization (MHz)
 (convention: |A_zz| > |A_xx| > |A_yy|)
 ----------------------------------------------------------------------
  ion      A_xx      A_yy      A_zz     asymmetry (A_yy - A_xx)/ A_zz 
 ----------------------------------------------------------------------
   1     365.870   365.750   623.698      -0.000
   2     -24.254   -11.212   -28.875      -0.452
   3     -23.614   -10.508   -28.230      -0.464
   4     -25.165   -12.204   -29.798      -0.435
 ---------------------------------------------------------------------



--------------------------------------------------------------------------------------------------------


 Conjugate gradient step on ions:
 trial-energy change:   -0.000598  1 .order   -0.000659   -0.000892   -0.000425
  (g-gl).g = 0.133E-02      g.g   = 0.133E-02  gl.gl    = 0.231E-02
 g(Force)  = 0.133E-02   g(Stress)= 0.000E+00 ortho     =-0.832E-05
 gamma     =   0.57393
 trial     =   0.67282
 opt step  =   1.28426  (harmonic =   1.28426) maximal distance =0.00582449
 next E    =   -13.817250   (d E  =  -0.00085)


--------------------------------------------------------------------------------------------------------


    WAVPRE:  cpu time      0.0049: real time      0.0127
    FEWALD:  cpu time      0.0003: real time      0.0003
    ORTHCH:  cpu time      0.0017: real time      0.0017
     LOOP+:  cpu time     10.9071: real time     10.9473


--------------------------------------- Ionic step       29  -------------------------------------------




--------------------------------------- Iteration     29(   1)  ---------------------------------------


    POTLOK:  cpu time      0.0565: real time      0.0568
    SETDIJ:  cpu time      2.6291: real time      2.6347
     EDDAV:  cpu time      0.0246: real time      0.0248
       DOS:  cpu time      0.0005: real time      0.0005
    CHARGE:  cpu time      0.0115: real time      0.0115
    MIXING:  cpu time      0.0004: real time      0.0004
    --------------------------------------------
      LOOP:  cpu time      2.7226: real time      2.7288

 eigenvalue-minimisations  :    64
 total energy-change (2. order) :-0.1390350E-03  (-0.1103525E-02)
 number of electron       6.9999994 magnetization      -1.0000000
 augmentation part       -0.1722312 magnetization       0.0271890

 Broyden mixing:
  rms(total) = 0.48473E-02    rms(broyden)= 0.48459E-02
  rms(prec ) = 0.58729E-02
  weight for this iteration     100.00

 Free energy of the ion-electron system (eV)
  ---------------------------------------------------
  alpha Z        PSCENC =         0.11007000
  Ewald energy   TEWEN  =        34.52807110
  -Hartree energ DENC   =      -140.56176823
  -exchange      EXHF   =         0.00000000
  -V(xc)+E(xc)   XCENC  =        -1.57752423
  PAW double counting   =       492.82379905     -475.40216950
  entropy T*S    EENTRO =         0.00579791
  eigenvalues    EBANDS =       -64.16647565
  atomic energy  EATOM  =       140.42303797
  Solvation  Ediel_sol  =         0.00000000
  ---------------------------------------------------
  free energy    TOTEN  =       -13.81716158 eV

  energy without entropy =      -13.82295949  energy(sigma->0) =      -13.81909422


--------------------------------------------------------------------------------------------------------




--------------------------------------- Iteration     29(   2)  ---------------------------------------


    POTLOK:  cpu time      0.0556: real time      0.0560
    SETDIJ:  cpu time      2.6291: real time      2.6348
     EDDAV:  cpu time      0.0266: real time      0.0268
       DOS:  cpu time      0.0005: real time      0.0005
    --------------------------------------------
      LOOP:  cpu time      2.7118: real time      2.7181

 eigenvalue-minimisations  :    72
 total energy-change (2. order) : 0.6060158E-04  (-0.3181283E-04)
 number of electron       6.9999994 magnetization      -1.0000000
 augmentation part       -0.1722312 magnetization       0.0271890

 Free energy of the ion-electron system (eV)
  ---------------------------------------------------
  alpha Z        PSCENC =         0.11007000
  Ewald energy   TEWEN  =        34.52807110
  -Hartree energ DENC   =      -140.57045583
  -exchange      EXHF   =         0.00000000
  -V(xc)+E(xc)   XCENC  =        -1.57690269
  PAW double counting   =       493.94645620     -476.52548648
  entropy T*S    EENTRO =         0.00579791
  eigenvalues    EBANDS =       -64.15768915
  atomic energy  EATOM  =       140.42303797
  Solvation  Ediel_sol  =         0.00000000
  ---------------------------------------------------
  free energy    TOTEN  =       -13.81710098 eV

  energy without entropy =      -13.82289889  energy(sigma->0) =      -13.81903362


--------------------------------------------------------------------------------------------------------




 average (electrostatic) potential at core
  the test charge radii are     0.9892  0.5201
  (the norm of the test charge is              1.0000)
       1 -93.4130       2 -40.8883       3 -40.8590       4 -40.8618
 
 
 
 E-fermi :  -4.9255     XC(G=0):  -0.8962     alpha+bet : -0.3227

 Fermi energy:        -4.9255173344

 spin component 1

 k-point     1 :       0.0000    0.0000    0.0000
  band No.  band energies     occupation 
      1     -12.5677      1.00000
      2      -8.2919      1.00000
      3      -8.2694      1.00000
      4      -3.2189     -0.00000
      5      -0.3546     -0.00000
      6       0.4221     -0.00000
      7       0.4713     -0.00000
      8       0.9500      0.00000
      9       1.1743      0.00000
     10       1.1905      0.00000
     11       1.4457      0.00000
     12       1.5222      0.00000
 Fermi energy:        -4.9255173344

 spin component 2

 k-point     1 :       0.0000    0.0000    0.0000
  band No.  band energies     occupation 
      1     -13.0479      1.00000
      2      -8.4549      1.00000
      3      -8.4319      1.00000
      4      -5.0939      1.00000
      5      -0.5809     -0.00000
      6       0.0407     -0.00000
      7       0.0818     -0.00000
      8       0.5476      0.00000
      9       1.0267      0.00000
     10       1.0723      0.00000
     11       1.1563      0.00000
     12       1.2332      0.00000


--------------------------------------------------------------------------------------------------------


 soft charge-density along one line, spin component           1
         0         1         2         3         4         5         6         7         8         9
 total charge-density along one line
 
 soft charge-density along one line, spin component           2
         0         1         2         3         4         5         6         7         8         9
 total charge-density along one line
 
 pseudopotential strength for first ion, spin component:           1
 19.576  27.319   0.003   0.004   0.004   0.005   0.008   0.008
 27.319  38.130   0.004   0.006   0.006   0.007   0.011   0.011
  0.003   0.004   4.345  -0.002  -0.002   8.105  -0.003  -0.004
  0.004   0.006  -0.002   4.343  -0.004  -0.003   8.101  -0.006
  0.004   0.006  -0.002  -0.004   4.342  -0.004  -0.006   8.099
  0.005   0.007   8.105  -0.003  -0.004  15.128  -0.006  -0.008
  0.008   0.011  -0.003   8.101  -0.006  -0.006  15.122  -0.012
  0.008   0.011  -0.004  -0.006   8.099  -0.008  -0.012  15.118
 pseudopotential strength for first ion, spin component:           2
 19.659  27.434  -0.006  -0.008  -0.010  -0.010  -0.015  -0.019
 27.434  38.289  -0.008  -0.011  -0.014  -0.014  -0.021  -0.026
 -0.006  -0.008   4.375   0.002   0.002   8.162   0.004   0.004
 -0.008  -0.011   0.002   4.377   0.004   0.004   8.165   0.007
 -0.010  -0.014   0.002   0.004   4.378   0.004   0.007   8.167
 -0.010  -0.014   8.162   0.004   0.004  15.235   0.007   0.008
 -0.015  -0.021   0.004   8.165   0.007   0.007  15.241   0.012
 -0.019  -0.026   0.004   0.007   8.167   0.008   0.012  15.245
 total augmentation occupancy for first ion, spin component:           1
  5.998  -2.253   0.500   0.755   0.882  -0.153  -0.230  -0.268
 -2.253   0.907  -0.298  -0.454  -0.529   0.071   0.107   0.124
  0.500  -0.298   3.468  -0.483  -0.557  -0.826   0.155   0.178
  0.755  -0.454  -0.483   3.025  -0.864   0.155  -0.686   0.276
  0.882  -0.529  -0.557  -0.864   2.748   0.178   0.276  -0.595
 -0.153   0.071  -0.826   0.155   0.178   0.200  -0.042  -0.048
 -0.230   0.107   0.155  -0.686   0.276  -0.042   0.162  -0.074
 -0.268   0.124   0.178   0.276  -0.595  -0.048  -0.074   0.137
 total augmentation occupancy for first ion, spin component:           2
 -0.890   0.489  -0.023  -0.036  -0.043   0.003   0.004   0.004
  0.489  -0.298   0.131   0.205   0.240  -0.019  -0.029  -0.034
 -0.023   0.131  -0.357  -0.288  -0.338   0.077   0.026   0.030
 -0.036   0.205  -0.288  -0.619  -0.525   0.026   0.101   0.047
 -0.043   0.240  -0.338  -0.525  -0.787   0.030   0.048   0.115
  0.003  -0.019   0.077   0.026   0.030  -0.019   0.000  -0.000
  0.004  -0.029   0.026   0.101   0.048   0.000  -0.019  -0.000
  0.004  -0.034   0.030   0.047   0.115  -0.000  -0.000  -0.019


------------------------ aborting loop because EDIFF is reached ----------------------------------------


    CHARGE:  cpu time      0.0112: real time      0.0113
    FORLOC:  cpu time      0.0007: real time      0.0007
    FORNL :  cpu time      0.0014: real time      0.0014
    STRESS:  cpu time      0.0050: real time      0.0051
    FORCOR:  cpu time      0.0486: real time      0.0488
    FORHAR:  cpu time      0.0067: real time      0.0067
    MIXING:  cpu time      0.0004: real time      0.0004
    OFIELD:  cpu time      0.0000: real time      0.0000

  FORCE on cell =-STRESS in cart. coord.  units (eV):
  Direction    XX          YY          ZZ          XY          YZ          ZX
  --------------------------------------------------------------------------------------
  Alpha Z     0.11007     0.11007     0.11007
  Ewald       3.23515    21.24845    10.04443   -13.08414   -11.42249   -20.44606
  Hartree    43.65250    50.60442    46.33723    -4.66072    -4.06612    -7.29717
  E(xc)     -21.17815   -21.20046   -21.18496     0.01538     0.01197     0.02288
  Local    -106.68448  -131.43345  -116.10442    17.58402    15.35332    27.49755
  n-local    30.16869    31.88160    30.77768    -1.30527    -1.12166    -2.02714
  augment    -5.38105    -5.50300    -5.42276     0.09498     0.08118     0.14829
  Kinetic    55.70947    53.97534    55.02892     1.30930     1.19199     2.05689
  Fock        0.00000     0.00000     0.00000     0.00000     0.00000     0.00000
  -------------------------------------------------------------------------------------
  Total      -0.36780    -0.31702    -0.41380    -0.04647     0.02818    -0.04476
  in kB      -0.58928    -0.50793    -0.66299    -0.07445     0.04515    -0.07171
  external pressure =       -0.59 kB  Pullay stress =        0.00 kB


 VOLUME and BASIS-vectors are now :
 -----------------------------------------------------------------------------
  energy-cutoff  :      312.50
  volume of cell :     1000.00
      direct lattice vectors                 reciprocal lattice vectors
    10.000000000  0.000000000  0.000000000     0.100000000  0.000000000  0.000000000
     0.000000000 10.000000000  0.000000000     0.000000000  0.100000000  0.000000000
     0.000000000  0.000000000 10.000000000     0.000000000  0.000000000  0.100000000

  length of vectors
    10.000000000 10.000000000 10.000000000     0.100000000  0.100000000  0.100000000


 FORCES acting on ions
    electron-ion (+dipol)            ewald-force                    non-local-force                 convergence-correction
 -----------------------------------------------------------------------------------------------
   0.186E+02 0.103E+02 0.156E+02   -.165E+02 -.908E+01 -.138E+02   -.214E+01 -.127E+01 -.176E+01   0.180E-01 0.252E-02 -.149E-01
   0.553E+01 -.255E+02 -.152E+01   -.610E+01 0.285E+02 0.179E+01   0.541E+00 -.295E+01 -.239E+00   0.524E-02 0.614E-02 -.621E-02
   -.227E+02 0.487E+01 0.120E+02   0.254E+02 -.540E+01 -.133E+02   -.265E+01 0.502E+00 0.129E+01   -.211E-02 0.625E-02 0.735E-03
   0.264E+01 0.127E+02 -.227E+02   -.286E+01 -.141E+02 0.253E+02   0.213E+00 0.139E+01 -.263E+01   0.162E-02 -.601E-02 0.444E-02
 -----------------------------------------------------------------------------------------------
   0.402E+01 0.231E+01 0.336E+01   0.178E-14 0.178E-14 -.355E-14   -.404E+01 -.232E+01 -.334E+01   0.228E-01 0.889E-02 -.159E-01
 
 
 POSITION                                       TOTAL-FORCE (eV/Angst)
 -----------------------------------------------------------------------------------
      5.17466      4.89840      4.11147         0.007525     -0.065484      0.013278
      4.91264      6.36035      4.23776        -0.028157      0.072673      0.018608
      6.50326      4.65034      3.47701         0.029590     -0.019444     -0.022451
      5.07399      4.20780      5.43437        -0.008958      0.012254     -0.009435
 -----------------------------------------------------------------------------------
    total drift:                                0.001800     -0.000291      0.001211


--------------------------------------------------------------------------------------------------------



  FREE ENERGIE OF THE ION-ELECTRON SYSTEM (eV)
  ---------------------------------------------------
  free  energy   TOTEN  =       -13.81710098 eV

  energy  without entropy=      -13.82289889  energy(sigma->0) =      -13.81903362
 
 d Force = 0.1910450E-03[-0.397E-05, 0.386E-03]  d Energy = 0.1046346E-03 0.864E-04
 d Force =-0.9398493E-01[-0.937E-01,-0.943E-01]  d Ewald  =-0.9398521E-01 0.287E-06


--------------------------------------------------------------------------------------------------------


    POTLOK:  cpu time      2.6955: real time      2.7018

 Total magnetic moment S=     1.0000000

 Fermi contact (isotropic) hyperfine coupling parameter (MHz) 
 -------------------------------------------------------------
  ion      A_pw      A_1PS     A_1AE     A_1c      A_tot
 -------------------------------------------------------------
   1      -5.238    -5.076   449.111    -3.650   448.950
   2     -12.457   -12.897   -21.174     0.000   -20.733
   3     -12.129   -12.582   -20.658     0.000   -20.205
   4     -12.647   -13.115   -21.526     0.000   -21.059
 -------------------------------------------------------------


 Dipolar hyperfine coupling parameters (MHz)
 ---------------------------------------------------------------------
  ion      A_xx      A_yy      A_zz      A_xy      A_xz      A_yz
 ---------------------------------------------------------------------
   1      41.141   -47.756     6.615    69.843   108.551    59.639
   2       1.570    -6.905     5.336     1.602    -6.057    -2.534
   3      -6.924     7.133    -0.209    -0.351     1.754    -5.677
   4       2.666     2.832    -5.498    -5.816    -2.795     4.425
 ---------------------------------------------------------------------


 Total hyperfine coupling parameters after diagonalization (MHz)
 (convention: |A_zz| > |A_xx| > |A_yy|)
 ----------------------------------------------------------------------
  ion      A_xx      A_yy      A_zz     asymmetry (A_yy - A_xx)/ A_zz 
 ----------------------------------------------------------------------
   1     362.917   362.833   621.100      -0.000
   2     -23.614   -10.418   -28.168      -0.468
   3     -23.051    -9.906   -27.658      -0.475
   4     -23.877   -10.821   -28.479      -0.458
 ---------------------------------------------------------------------



--------------------------------------------------------------------------------------------------------




--------------------------------------------------------------------------------------------------------


  
 reached required accuracy - stopping structural energy minimisation
 writing wavefunctions
     LOOP+:  cpu time     10.8940: real time     10.9463
    4ORBIT:  cpu time      0.0000: real time      0.0000

 total amount of memory used by VASP MPI-rank0    32330. kBytes
=======================================================================

   base      :      30000. kBytes
   nonl-proj :        101. kBytes
   fftplans  :        643. kBytes
   grid      :       1529. kBytes
   one-center:          6. kBytes
   wavefun   :         51. kBytes
 
  
  
 General timing and accounting informations for this job:
 ========================================================
  
                  Total CPU time used (sec):      903.322
                            User time (sec):      902.311
                          System time (sec):        1.011
                         Elapsed time (sec):      926.242
  
                   Maximum memory used (kb):      264224.
                   Average memory used (kb):          N/A
  
                          Minor page faults:        71665
                          Major page faults:          390
                 Voluntary context switches:         3230
